  62  62   0   0
  0.6694925E+02  0.9795473E-09  0.9795976E-09  0.4995175E-08  0.5000000E-15
  1.000000000000000E-004
  CAR 
 unknown system                          
      5.08504494    -24.21503703  301     -3.26547842      1.00000000
    -24.215  0.0000E+00  0.0000E+00  0.0000E+00  0.0000E+00
    -24.117  0.0000E+00  0.0000E+00  0.0000E+00  0.0000E+00
    -24.020  0.0000E+00  0.0000E+00  0.0000E+00  0.0000E+00
    -23.922  0.0000E+00  0.0000E+00  0.0000E+00  0.0000E+00
    -23.824  0.0000E+00  0.0000E+00  0.0000E+00  0.0000E+00
    -23.727  0.0000E+00  0.0000E+00  0.0000E+00  0.0000E+00
    -23.629  0.0000E+00  0.0000E+00  0.0000E+00  0.0000E+00
    -23.531  0.0000E+00  0.0000E+00  0.0000E+00  0.0000E+00
    -23.434  0.0000E+00  0.0000E+00  0.0000E+00  0.0000E+00
    -23.336  0.0000E+00  0.0000E+00  0.0000E+00  0.0000E+00
    -23.238  0.0000E+00  0.0000E+00  0.0000E+00  0.0000E+00
    -23.141  0.0000E+00  0.0000E+00  0.0000E+00  0.0000E+00
    -23.043  0.0000E+00  0.0000E+00  0.0000E+00  0.0000E+00
    -22.945  0.0000E+00  0.0000E+00  0.0000E+00  0.0000E+00
    -22.848  0.2790E+01  0.2790E+01  0.4955E-01  0.4955E-01
    -22.750  0.2748E+01  0.2748E+01  0.3127E+00  0.3127E+00
    -22.652  0.4581E+01  0.4581E+01  0.6272E+00  0.6272E+00
    -22.555  0.1766E+01  0.1766E+01  0.9371E+00  0.9371E+00
    -22.457  0.1350E+03  0.1350E+03  0.1212E+01  0.1212E+01
    -22.359  0.0000E+00  0.0000E+00  0.2000E+01  0.2000E+01
    -22.262  0.4350E+01  0.4350E+01  0.2280E+01  0.2280E+01
    -22.164  0.4052E+01  0.4052E+01  0.2912E+01  0.2912E+01
    -22.066  0.6754E+01  0.6754E+01  0.3409E+01  0.3409E+01
    -21.969  0.5554E+01  0.5554E+01  0.4162E+01  0.4162E+01
    -21.871  0.3447E+01  0.3447E+01  0.4568E+01  0.4568E+01
    -21.773  0.1204E+01  0.1204E+01  0.4750E+01  0.4750E+01
    -21.676  0.4730E+01  0.4730E+01  0.4911E+01  0.4911E+01
    -21.578  0.8410E+01  0.8410E+01  0.5704E+01  0.5704E+01
    -21.480  0.1439E+02  0.1439E+02  0.6136E+01  0.6136E+01
    -21.383  0.2131E+01  0.2131E+01  0.6845E+01  0.6845E+01
    -21.285  0.0000E+00  0.0000E+00  0.7000E+01  0.7000E+01
    -21.187  0.3054E+01  0.3054E+01  0.7136E+01  0.7136E+01
    -21.090  0.4906E+01  0.4906E+01  0.7599E+01  0.7599E+01
    -20.992  0.4531E+01  0.4531E+01  0.8062E+01  0.8062E+01
    -20.894  0.5314E+01  0.5314E+01  0.8530E+01  0.8530E+01
    -20.797  0.4028E+01  0.4028E+01  0.9481E+01  0.9481E+01
    -20.699  0.4479E+01  0.4479E+01  0.9906E+01  0.9906E+01
    -20.601  0.2499E+01  0.2499E+01  0.1071E+02  0.1071E+02
    -20.504  0.3221E+01  0.3221E+01  0.1099E+02  0.1099E+02
    -20.406  0.3944E+01  0.3944E+01  0.1134E+02  0.1134E+02
    -20.308  0.8092E+01  0.8092E+01  0.1194E+02  0.1194E+02
    -20.211  0.8672E+00  0.8672E+00  0.1241E+02  0.1241E+02
    -20.113  0.0000E+00  0.0000E+00  0.1300E+02  0.1300E+02
    -20.015  0.2981E+01  0.2981E+01  0.1321E+02  0.1321E+02
    -19.918  0.2460E+01  0.2460E+01  0.1347E+02  0.1347E+02
    -19.820  0.1939E+01  0.1939E+01  0.1369E+02  0.1369E+02
    -19.722  0.1825E+01  0.1825E+01  0.1388E+02  0.1388E+02
    -19.625  0.5159E+01  0.5159E+01  0.1496E+02  0.1496E+02
    -19.527  0.6856E+01  0.6856E+01  0.1552E+02  0.1552E+02
    -19.429  0.6222E+01  0.6222E+01  0.1615E+02  0.1615E+02
    -19.332  0.3527E+01  0.3527E+01  0.1665E+02  0.1665E+02
    -19.234  0.4114E+01  0.4114E+01  0.1702E+02  0.1702E+02
    -19.136  0.2332E+01  0.2332E+01  0.1732E+02  0.1732E+02
    -19.039  0.4165E+01  0.4165E+01  0.1768E+02  0.1768E+02
    -18.941  0.5450E+01  0.5450E+01  0.1829E+02  0.1829E+02
    -18.843  0.4326E+01  0.4326E+01  0.1876E+02  0.1876E+02
    -18.746  0.1090E+02  0.1090E+02  0.1951E+02  0.1951E+02
    -18.648  0.5448E+01  0.5448E+01  0.2039E+02  0.2039E+02
    -18.550  0.5078E+01  0.5078E+01  0.2090E+02  0.2090E+02
    -18.453  0.4709E+01  0.4709E+01  0.2138E+02  0.2138E+02
    -18.355  0.3838E+01  0.3838E+01  0.2177E+02  0.2177E+02
    -18.257  0.4482E+01  0.4482E+01  0.2213E+02  0.2213E+02
    -18.160  0.4547E+01  0.4547E+01  0.2267E+02  0.2267E+02
    -18.062  0.5898E+01  0.5898E+01  0.2307E+02  0.2307E+02
    -17.964  0.5666E+01  0.5666E+01  0.2358E+02  0.2358E+02
    -17.867  0.9213E+01  0.9213E+01  0.2424E+02  0.2424E+02
    -17.769  0.7599E+01  0.7599E+01  0.2479E+02  0.2479E+02
    -17.671  0.5871E+01  0.5871E+01  0.2552E+02  0.2552E+02
    -17.574  0.3440E+01  0.3440E+01  0.2614E+02  0.2614E+02
    -17.476  0.3074E+01  0.3074E+01  0.2658E+02  0.2658E+02
    -17.378  0.4461E+01  0.4461E+01  0.2700E+02  0.2700E+02
    -17.281  0.3918E+01  0.3918E+01  0.2741E+02  0.2741E+02
    -17.183  0.2952E+01  0.2952E+01  0.2780E+02  0.2780E+02
    -17.085  0.8170E+01  0.8170E+01  0.2852E+02  0.2852E+02
    -16.988  0.2782E+01  0.2782E+01  0.2899E+02  0.2899E+02
    -16.890  0.3112E+01  0.3112E+01  0.2927E+02  0.2927E+02
    -16.792  0.4283E+01  0.4283E+01  0.2963E+02  0.2963E+02
    -16.695  0.3744E+01  0.3744E+01  0.3008E+02  0.3008E+02
    -16.597  0.2118E+01  0.2118E+01  0.3040E+02  0.3040E+02
    -16.499  0.3002E+01  0.3002E+01  0.3071E+02  0.3071E+02
    -16.402  0.2498E+01  0.2498E+01  0.3097E+02  0.3097E+02
    -16.304  0.1887E+01  0.1887E+01  0.3121E+02  0.3121E+02
    -16.206  0.3121E+01  0.3121E+01  0.3153E+02  0.3153E+02
    -16.109  0.4419E+01  0.4419E+01  0.3208E+02  0.3208E+02
    -16.011  0.7373E+01  0.7373E+01  0.3259E+02  0.3259E+02
    -15.913  0.8551E+00  0.8551E+00  0.3320E+02  0.3320E+02
    -15.816  0.3290E+01  0.3290E+01  0.3336E+02  0.3336E+02
    -15.718  0.6687E+01  0.6687E+01  0.3408E+02  0.3408E+02
    -15.620  0.6871E+01  0.6871E+01  0.3475E+02  0.3475E+02
    -15.523  0.4898E+01  0.4898E+01  0.3539E+02  0.3539E+02
    -15.425  0.8625E+01  0.8625E+01  0.3612E+02  0.3612E+02
    -15.327  0.7430E+01  0.7430E+01  0.3689E+02  0.3689E+02
    -15.230  0.2966E+01  0.2966E+01  0.3731E+02  0.3731E+02
    -15.132  0.8161E+01  0.8161E+01  0.3776E+02  0.3776E+02
    -15.034  0.2711E+01  0.2711E+01  0.3838E+02  0.3838E+02
    -14.937  0.3222E+01  0.3222E+01  0.3863E+02  0.3863E+02
    -14.839  0.6087E+01  0.6087E+01  0.3912E+02  0.3912E+02
    -14.741  0.6285E+01  0.6285E+01  0.3975E+02  0.3975E+02
    -14.644  0.5956E+01  0.5956E+01  0.4035E+02  0.4035E+02
    -14.546  0.4359E+01  0.4359E+01  0.4092E+02  0.4092E+02
    -14.448  0.2867E+01  0.2867E+01  0.4137E+02  0.4137E+02
    -14.351  0.1153E+01  0.1153E+01  0.4181E+02  0.4181E+02
    -14.253  0.3564E+01  0.3564E+01  0.4247E+02  0.4247E+02
    -14.155  0.6055E+01  0.6055E+01  0.4308E+02  0.4308E+02
    -14.058  0.3708E+01  0.3708E+01  0.4354E+02  0.4354E+02
    -13.960  0.2876E+01  0.2876E+01  0.4393E+02  0.4393E+02
    -13.862  0.2415E+01  0.2415E+01  0.4418E+02  0.4418E+02
    -13.765  0.4586E+01  0.4586E+01  0.4451E+02  0.4451E+02
    -13.667  0.5216E+01  0.5216E+01  0.4509E+02  0.4509E+02
    -13.569  0.3506E+01  0.3506E+01  0.4533E+02  0.4533E+02
    -13.472  0.7312E+01  0.7312E+01  0.4609E+02  0.4609E+02
    -13.374  0.4362E+01  0.4362E+01  0.4664E+02  0.4664E+02
    -13.276  0.5208E+01  0.5208E+01  0.4710E+02  0.4710E+02
    -13.179  0.5293E+01  0.5293E+01  0.4757E+02  0.4757E+02
    -13.081  0.7240E+01  0.7240E+01  0.4828E+02  0.4828E+02
    -12.983  0.4489E+01  0.4489E+01  0.4882E+02  0.4882E+02
    -12.886  0.1189E+02  0.1189E+02  0.4970E+02  0.4970E+02
    -12.788  0.5762E+01  0.5762E+01  0.5041E+02  0.5041E+02
    -12.690  0.6735E+01  0.6735E+01  0.5100E+02  0.5100E+02
    -12.593  0.3999E+01  0.3999E+01  0.5160E+02  0.5160E+02
    -12.495  0.4967E+01  0.4967E+01  0.5213E+02  0.5213E+02
    -12.397  0.4776E+01  0.4776E+01  0.5247E+02  0.5247E+02
    -12.300  0.5779E+01  0.5779E+01  0.5300E+02  0.5300E+02
    -12.202  0.6680E+01  0.6680E+01  0.5361E+02  0.5361E+02
    -12.104  0.3430E+01  0.3430E+01  0.5438E+02  0.5438E+02
    -12.007  0.4936E+01  0.4936E+01  0.5495E+02  0.5495E+02
    -11.909  0.7774E+01  0.7774E+01  0.5576E+02  0.5576E+02
    -11.811  0.4944E+01  0.4944E+01  0.5656E+02  0.5656E+02
    -11.714  0.4740E+01  0.4740E+01  0.5707E+02  0.5707E+02
    -11.616  0.3859E+01  0.3859E+01  0.5762E+02  0.5762E+02
    -11.518  0.2576E+01  0.2576E+01  0.5791E+02  0.5791E+02
    -11.421  0.2481E+03  0.2481E+03  0.5878E+02  0.5878E+02
    -11.323  0.6188E+01  0.6188E+01  0.6008E+02  0.6008E+02
    -11.225  0.8275E+01  0.8275E+01  0.6114E+02  0.6114E+02
    -11.128  0.3125E+01  0.3125E+01  0.6191E+02  0.6191E+02
    -11.030  0.5004E+01  0.5004E+01  0.6241E+02  0.6241E+02
    -10.932  0.5745E+01  0.5745E+01  0.6296E+02  0.6296E+02
    -10.835  0.3013E+01  0.3013E+01  0.6445E+02  0.6445E+02
    -10.737  0.7214E+01  0.7214E+01  0.6502E+02  0.6502E+02
    -10.639  0.3344E+01  0.3344E+01  0.6624E+02  0.6624E+02
    -10.542  0.5938E+01  0.5938E+01  0.6682E+02  0.6682E+02
    -10.444  0.8160E+01  0.8160E+01  0.6801E+02  0.6801E+02
    -10.346  0.9003E+01  0.9003E+01  0.6911E+02  0.6911E+02
    -10.249  0.6261E+01  0.6261E+01  0.7011E+02  0.7011E+02
    -10.151  0.9357E+01  0.9357E+01  0.7128E+02  0.7128E+02
    -10.053  0.1095E+02  0.1095E+02  0.7248E+02  0.7248E+02
     -9.956  0.1288E+02  0.1288E+02  0.7383E+02  0.7383E+02
     -9.858  0.2600E+02  0.2600E+02  0.7530E+02  0.7530E+02
     -9.760  0.8483E+01  0.8483E+01  0.7650E+02  0.7650E+02
     -9.663  0.8911E+01  0.8911E+01  0.7762E+02  0.7762E+02
     -9.565  0.1053E+02  0.1053E+02  0.7891E+02  0.7891E+02
     -9.467  0.1433E+02  0.1433E+02  0.8035E+02  0.8035E+02
     -9.370  0.1751E+02  0.1751E+02  0.8164E+02  0.8164E+02
     -9.272  0.7628E+01  0.7628E+01  0.8296E+02  0.8296E+02
     -9.174  0.1070E+02  0.1070E+02  0.8420E+02  0.8420E+02
     -9.077  0.6142E+01  0.6142E+01  0.8544E+02  0.8544E+02
     -8.979  0.1381E+02  0.1381E+02  0.8650E+02  0.8650E+02
     -8.881  0.1543E+02  0.1543E+02  0.8772E+02  0.8772E+02
     -8.784  0.1217E+02  0.1217E+02  0.8897E+02  0.8897E+02
     -8.686  0.7543E+01  0.7543E+01  0.9068E+02  0.9068E+02
     -8.588  0.5899E+01  0.5899E+01  0.9160E+02  0.9160E+02
     -8.491  0.5820E+01  0.5820E+01  0.9254E+02  0.9254E+02
     -8.393  0.7671E+01  0.7671E+01  0.9339E+02  0.9339E+02
     -8.295  0.7864E+01  0.7864E+01  0.9420E+02  0.9420E+02
     -8.198  0.1211E+02  0.1211E+02  0.9522E+02  0.9522E+02
     -8.100  0.9782E+01  0.9782E+01  0.9630E+02  0.9630E+02
     -8.002  0.1684E+01  0.1684E+01  0.9716E+02  0.9716E+02
     -7.905  0.3241E+01  0.3241E+01  0.9740E+02  0.9740E+02
     -7.807  0.4410E+01  0.4410E+01  0.9833E+02  0.9833E+02
     -7.709  0.4238E+01  0.4238E+01  0.9867E+02  0.9867E+02
     -7.612  0.4533E+01  0.4533E+01  0.9969E+02  0.9969E+02
     -7.514  0.5224E+01  0.5224E+01  0.1005E+03  0.1005E+03
     -7.416  0.4520E+01  0.4520E+01  0.1010E+03  0.1010E+03
     -7.319  0.4903E+01  0.4903E+01  0.1016E+03  0.1016E+03
     -7.221  0.1134E+02  0.1134E+02  0.1025E+03  0.1025E+03
     -7.123  0.4800E+01  0.4800E+01  0.1036E+03  0.1036E+03
     -7.026  0.8782E+01  0.8782E+01  0.1048E+03  0.1048E+03
     -6.928  0.1834E+02  0.1834E+02  0.1053E+03  0.1053E+03
     -6.830  0.9150E+01  0.9150E+01  0.1063E+03  0.1063E+03
     -6.733  0.8442E+01  0.8442E+01  0.1071E+03  0.1071E+03
     -6.635  0.7784E+01  0.7784E+01  0.1078E+03  0.1078E+03
     -6.537  0.1186E+02  0.1186E+02  0.1091E+03  0.1091E+03
     -6.440  0.5942E+01  0.5942E+01  0.1098E+03  0.1098E+03
     -6.342  0.4370E+01  0.4370E+01  0.1104E+03  0.1104E+03
     -6.244  0.3822E+01  0.3822E+01  0.1108E+03  0.1108E+03
     -6.147  0.6225E+01  0.6225E+01  0.1113E+03  0.1113E+03
     -6.049  0.5032E+01  0.5032E+01  0.1120E+03  0.1120E+03
     -5.951  0.1507E+02  0.1507E+02  0.1126E+03  0.1126E+03
     -5.854  0.1084E+02  0.1084E+02  0.1139E+03  0.1139E+03
     -5.756  0.2040E+01  0.2040E+01  0.1146E+03  0.1146E+03
     -5.658  0.1470E+01  0.1470E+01  0.1148E+03  0.1148E+03
     -5.561  0.8754E+00  0.8754E+00  0.1149E+03  0.1149E+03
     -5.463  0.1139E+02  0.1139E+02  0.1154E+03  0.1154E+03
     -5.365  0.4582E+02  0.4582E+02  0.1165E+03  0.1165E+03
     -5.268  0.1529E+02  0.1529E+02  0.1174E+03  0.1174E+03
     -5.170  0.3778E+01  0.3778E+01  0.1186E+03  0.1186E+03
     -5.072  0.4004E+01  0.4004E+01  0.1190E+03  0.1190E+03
     -4.975  0.3058E+01  0.3058E+01  0.1194E+03  0.1194E+03
     -4.877  0.2400E+01  0.2400E+01  0.1196E+03  0.1196E+03
     -4.779  0.4639E+01  0.4639E+01  0.1204E+03  0.1204E+03
     -4.682  0.2515E+01  0.2515E+01  0.1206E+03  0.1206E+03
     -4.584  0.2981E+01  0.2981E+01  0.1208E+03  0.1208E+03
     -4.486  0.2789E+01  0.2789E+01  0.1211E+03  0.1211E+03
     -4.389  0.3641E+01  0.3641E+01  0.1214E+03  0.1214E+03
     -4.291  0.3852E+01  0.3852E+01  0.1219E+03  0.1219E+03
     -4.193  0.0000E+00  0.0000E+00  0.1220E+03  0.1220E+03
     -4.096  0.0000E+00  0.0000E+00  0.1220E+03  0.1220E+03
     -3.998  0.0000E+00  0.0000E+00  0.1220E+03  0.1220E+03
     -3.900  0.0000E+00  0.0000E+00  0.1220E+03  0.1220E+03
     -3.803  0.0000E+00  0.0000E+00  0.1220E+03  0.1220E+03
     -3.705  0.0000E+00  0.0000E+00  0.1220E+03  0.1220E+03
     -3.607  0.5659E+01  0.5659E+01  0.1223E+03  0.1223E+03
     -3.510  0.4509E+01  0.4509E+01  0.1227E+03  0.1227E+03
     -3.412  0.1498E+01  0.1498E+01  0.1233E+03  0.1233E+03
     -3.314  0.8604E+01  0.8604E+01  0.1237E+03  0.1237E+03
     -3.217  0.0000E+00  0.0000E+00  0.1240E+03  0.1240E+03
     -3.119  0.1098E+02  0.1098E+02  0.1242E+03  0.1242E+03
     -3.021  0.7864E+01  0.7864E+01  0.1250E+03  0.1250E+03
     -2.924  0.2731E+01  0.2731E+01  0.1258E+03  0.1258E+03
     -2.826  0.1642E+01  0.1642E+01  0.1262E+03  0.1262E+03
     -2.728  0.2178E+01  0.2178E+01  0.1263E+03  0.1263E+03
     -2.631  0.4217E+01  0.4217E+01  0.1266E+03  0.1266E+03
     -2.533  0.1842E+01  0.1842E+01  0.1269E+03  0.1269E+03
     -2.435  0.0000E+00  0.0000E+00  0.1270E+03  0.1270E+03
     -2.338  0.0000E+00  0.0000E+00  0.1270E+03  0.1270E+03
     -2.240  0.0000E+00  0.0000E+00  0.1270E+03  0.1270E+03
     -2.142  0.0000E+00  0.0000E+00  0.1270E+03  0.1270E+03
     -2.045  0.4242E+01  0.4242E+01  0.1271E+03  0.1271E+03
     -1.947  0.2940E+01  0.2940E+01  0.1275E+03  0.1275E+03
     -1.849  0.3600E+01  0.3600E+01  0.1278E+03  0.1278E+03
     -1.752  0.6419E+01  0.6419E+01  0.1282E+03  0.1282E+03
     -1.654  0.6794E+01  0.6794E+01  0.1290E+03  0.1290E+03
     -1.556  0.2331E+01  0.2331E+01  0.1294E+03  0.1294E+03
     -1.459  0.5561E+01  0.5561E+01  0.1299E+03  0.1299E+03
     -1.361  0.5508E+01  0.5508E+01  0.1304E+03  0.1304E+03
     -1.263  0.8096E+01  0.8096E+01  0.1311E+03  0.1311E+03
     -1.166  0.3341E+01  0.3341E+01  0.1315E+03  0.1315E+03
     -1.068  0.1320E+02  0.1320E+02  0.1322E+03  0.1322E+03
     -0.970  0.4774E+01  0.4774E+01  0.1330E+03  0.1330E+03
     -0.873  0.4749E+01  0.4749E+01  0.1335E+03  0.1335E+03
     -0.775  0.0000E+00  0.0000E+00  0.1340E+03  0.1340E+03
     -0.677  0.1615E+02  0.1615E+02  0.1344E+03  0.1344E+03
     -0.580  0.2676E+01  0.2676E+01  0.1350E+03  0.1350E+03
     -0.482  0.4006E+01  0.4006E+01  0.1358E+03  0.1358E+03
     -0.384  0.1611E+02  0.1611E+02  0.1365E+03  0.1365E+03
     -0.287  0.3687E+01  0.3687E+01  0.1373E+03  0.1373E+03
     -0.189  0.3232E+01  0.3232E+01  0.1378E+03  0.1378E+03
     -0.091  0.6425E+01  0.6425E+01  0.1381E+03  0.1381E+03
      0.006  0.4162E+01  0.4162E+01  0.1387E+03  0.1387E+03
      0.104  0.4694E+01  0.4695E+01  0.1391E+03  0.1391E+03
      0.202  0.5519E+01  0.5519E+01  0.1396E+03  0.1396E+03
      0.299  0.4251E+01  0.4251E+01  0.1402E+03  0.1402E+03
      0.397  0.3771E+01  0.3774E+01  0.1406E+03  0.1406E+03
      0.495  0.7172E+01  0.7172E+01  0.1412E+03  0.1412E+03
      0.592  0.5624E+01  0.5623E+01  0.1418E+03  0.1418E+03
      0.690  0.5075E+01  0.5075E+01  0.1423E+03  0.1423E+03
      0.788  0.7618E+01  0.7658E+01  0.1429E+03  0.1429E+03
      0.885  0.5115E+01  0.5107E+01  0.1435E+03  0.1435E+03
      0.983  0.1161E+02  0.1160E+02  0.1445E+03  0.1445E+03
      1.081  0.0000E+00  0.0000E+00  0.1450E+03  0.1450E+03
      1.178  0.5826E+01  0.5744E+01  0.1457E+03  0.1457E+03
      1.276  0.8213E+01  0.7708E+01  0.1464E+03  0.1463E+03
      1.374  0.1428E+02  0.1416E+02  0.1473E+03  0.1473E+03
      1.471  0.1503E+02  0.1482E+02  0.1486E+03  0.1486E+03
      1.569  0.9092E+01  0.9312E+01  0.1495E+03  0.1495E+03
      1.667  0.9098E+01  0.9023E+01  0.1506E+03  0.1506E+03
      1.764  0.1235E+02  0.1174E+02  0.1516E+03  0.1516E+03
      1.862  0.9773E+01  0.1023E+02  0.1528E+03  0.1528E+03
      1.960  0.8724E+01  0.8770E+01  0.1548E+03  0.1548E+03
      2.057  0.1441E+02  0.1439E+02  0.1569E+03  0.1569E+03
      2.155  0.1684E+02  0.1650E+02  0.1582E+03  0.1582E+03
      2.253  0.2238E+02  0.2296E+02  0.1602E+03  0.1602E+03
      2.350  0.2653E+02  0.2563E+02  0.1625E+03  0.1625E+03
      2.448  0.1721E+02  0.1703E+02  0.1644E+03  0.1644E+03
      2.546  0.7999E+01  0.7924E+01  0.1656E+03  0.1656E+03
      2.643  0.1995E+02  0.1994E+02  0.1673E+03  0.1673E+03
      2.741  0.2812E+02  0.2597E+02  0.1695E+03  0.1694E+03
      2.839  0.2491E+02  0.2520E+02  0.1720E+03  0.1720E+03
      2.936  0.1878E+02  0.1911E+02  0.1741E+03  0.1741E+03
      3.034  0.3346E+02  0.3383E+02  0.1761E+03  0.1761E+03
      3.132  0.2069E+02  0.1939E+02  0.1777E+03  0.1777E+03
      3.229  0.3112E+02  0.3199E+02  0.1802E+03  0.1801E+03
      3.327  0.3087E+02  0.3055E+02  0.1822E+03  0.1822E+03
      3.425  0.1197E+02  0.1205E+02  0.1841E+03  0.1841E+03
      3.522  0.3291E+02  0.3380E+02  0.1868E+03  0.1867E+03
      3.620  0.2055E+02  0.1985E+02  0.1891E+03  0.1891E+03
      3.718  0.2820E+02  0.2541E+02  0.1913E+03  0.1913E+03
      3.815  0.0000E+00  0.0000E+00  0.1920E+03  0.1920E+03
      3.913  0.0000E+00  0.0000E+00  0.1920E+03  0.1920E+03
      4.011  0.0000E+00  0.0000E+00  0.1920E+03  0.1920E+03
      4.108  0.0000E+00  0.0000E+00  0.1920E+03  0.1920E+03
      4.206  0.0000E+00  0.0000E+00  0.1920E+03  0.1920E+03
      4.304  0.0000E+00  0.0000E+00  0.1920E+03  0.1920E+03
      4.401  0.0000E+00  0.0000E+00  0.1920E+03  0.1920E+03
      4.499  0.0000E+00  0.0000E+00  0.1920E+03  0.1920E+03
      4.597  0.0000E+00  0.0000E+00  0.1920E+03  0.1920E+03
      4.694  0.0000E+00  0.0000E+00  0.1920E+03  0.1920E+03
      4.792  0.0000E+00  0.0000E+00  0.1920E+03  0.1920E+03
      4.890  0.0000E+00  0.0000E+00  0.1920E+03  0.1920E+03
      4.987  0.0000E+00  0.0000E+00  0.1920E+03  0.1920E+03
      5.085  0.0000E+00  0.0000E+00  0.1920E+03  0.1920E+03
