       N       E                     dE             d eps       ncg     rms          rms(c)
DAV:   1     0.292014909692E+04    0.29201E+04   -0.10097E+05 10380   0.133E+03
DAV:   2     0.859820758144E+02   -0.28342E+04   -0.25892E+04 16476   0.249E+02
DAV:   3    -0.544246934058E+03   -0.63023E+03   -0.62727E+03 13176   0.122E+02
DAV:   4    -0.571139444846E+03   -0.26893E+02   -0.26741E+02 13164   0.327E+01
DAV:   5    -0.571844541171E+03   -0.70510E+00   -0.70278E+00 14100   0.484E+00    0.492E+01
DAV:   6    -0.403187040517E+03    0.16866E+03   -0.26737E+02 11520   0.298E+01    0.295E+01
DAV:   7    -0.422651092889E+03   -0.19464E+02   -0.31690E+01 12036   0.113E+01    0.204E+01
DAV:   8    -0.432932832658E+03   -0.10282E+02   -0.16945E+01 11616   0.854E+00    0.146E+01
DAV:   9    -0.448714985055E+03   -0.15782E+02   -0.40971E+00 11436   0.505E+00    0.125E+01
DAV:  10    -0.485792335770E+03   -0.37077E+02   -0.20625E+01 11184   0.931E+00    0.101E+01
DAV:  11    -0.514373198253E+03   -0.28581E+02   -0.17052E+01 11340   0.771E+00    0.823E+00
DAV:  12    -0.540375670642E+03   -0.26002E+02   -0.21185E+01 10680   0.742E+00    0.658E+00
DAV:  13    -0.549200958655E+03   -0.88253E+01   -0.74554E+00 11340   0.409E+00    0.586E+00
DAV:  14    -0.552244884015E+03   -0.30439E+01   -0.13938E+00 10956   0.229E+00    0.542E+00
DAV:  15    -0.553587209740E+03   -0.13423E+01   -0.54829E-01 11172   0.168E+00    0.499E+00
DAV:  16    -0.554494989771E+03   -0.90778E+00   -0.46996E-01 10764   0.153E+00    0.448E+00
DAV:  17    -0.554860873183E+03   -0.36588E+00   -0.23556E-01 11184   0.122E+00    0.384E+00
DAV:  18    -0.554709869147E+03    0.15100E+00   -0.52112E-01 10824   0.116E+00    0.271E+00
DAV:  19    -0.557799317677E+03   -0.30894E+01   -0.38413E-01 11640   0.981E-01    0.186E+00
DAV:  20    -0.557426368962E+03    0.37295E+00   -0.30914E-01 10596   0.929E-01    0.142E+00
DAV:  21    -0.557352542987E+03    0.73826E-01   -0.33126E-01 10776   0.897E-01    0.848E-01
DAV:  22    -0.557696011021E+03   -0.34347E+00   -0.94380E-02 10692   0.555E-01    0.435E-01
DAV:  23    -0.557992200065E+03   -0.29619E+00   -0.18060E-02 11208   0.289E-01    0.216E-01
DAV:  24    -0.558091866937E+03   -0.99667E-01   -0.50680E-03 10896   0.175E-01    0.104E-01
DAV:  25    -0.558144066575E+03   -0.52200E-01   -0.14171E-03 10512   0.101E-01    0.687E-02
DAV:  26    -0.558152529911E+03   -0.84633E-02   -0.13235E-03 10644   0.848E-02    0.523E-02
DAV:  27    -0.558157089779E+03   -0.45599E-02   -0.12467E-03 10716   0.573E-02    0.559E-02
DAV:  28    -0.558157513872E+03   -0.42409E-03   -0.71071E-05 11988   0.174E-02    0.588E-02
DAV:  29    -0.558158117897E+03   -0.60403E-03   -0.15585E-04 10524   0.237E-02    0.645E-02
DAV:  30    -0.558158138689E+03   -0.20792E-04   -0.21151E-03 10932   0.473E-02    0.596E-02
DAV:  31    -0.558160135346E+03   -0.19967E-02   -0.20919E-03 10512   0.570E-02    0.403E-02
DAV:  32    -0.558164555891E+03   -0.44205E-02   -0.25722E-04 10560   0.491E-02    0.203E-02
DAV:  33    -0.558167024798E+03   -0.24689E-02   -0.37550E-04 11124   0.318E-02    0.983E-03
DAV:  34    -0.558167621908E+03   -0.59711E-03   -0.10045E-04 11100   0.194E-02    0.806E-03
DAV:  35    -0.558168226808E+03   -0.60490E-03   -0.14650E-05 10548   0.122E-02    0.686E-03
DAV:  36    -0.558168630928E+03   -0.40412E-03   -0.22141E-05 10740   0.828E-03    0.233E-03
DAV:  37    -0.558168780027E+03   -0.14910E-03   -0.35364E-06 10692   0.540E-03    0.164E-03
DAV:  38    -0.558168937085E+03   -0.15706E-03   -0.23563E-06  9888   0.369E-03    0.109E-03
DAV:  39    -0.558169018872E+03   -0.81787E-04   -0.16001E-06  9948   0.287E-03    0.708E-04
DAV:  40    -0.558169047915E+03   -0.29043E-04   -0.39602E-07  9588   0.232E-03    0.553E-04
DAV:  41    -0.558169068850E+03   -0.20935E-04   -0.24597E-07  9144   0.161E-03    0.236E-04
DAV:  42    -0.558169075765E+03   -0.69143E-05   -0.47737E-08  8064   0.817E-04    0.160E-04
DAV:  43    -0.558169081253E+03   -0.54883E-05   -0.23347E-08  7716   0.420E-04    0.101E-04
DAV:  44    -0.558169085580E+03   -0.43275E-05   -0.12239E-08  7512   0.285E-04    0.736E-05
DAV:  45    -0.558169087966E+03   -0.23858E-05   -0.17006E-09  7104   0.193E-04    0.430E-05
DAV:  46    -0.558169089412E+03   -0.14454E-05   -0.86097E-10  7056   0.168E-04    0.320E-05
DAV:  47    -0.558169090084E+03   -0.67246E-06    0.18114E-09  7164   0.101E-04    0.259E-05
DAV:  48    -0.558169090367E+03   -0.28305E-06    0.28138E-09  7356   0.500E-05    0.106E-05
DAV:  49    -0.558169090484E+03   -0.11671E-06    0.33126E-09  7248   0.299E-05    0.579E-06
DAV:  50    -0.558169090561E+03   -0.77402E-07    0.34757E-09  7200   0.218E-05
   1 F= -.56519737E+03 E0= -.56519737E+03  d E =0.000000E+00  mag=    -0.0000
