 vasp.5.4.4.18Apr17-6-g9f103f2a35 (build Jan 12 2023 11:40:15) complex          
  
 executed on             LinuxIFC date 2024.01.13  00:40:56
 running on   48 total cores
 distrk:  each k-point on   48 cores,    1 groups
 distr:  one band on NCORES_PER_BAND=   8 cores,    6 groups


--------------------------------------------------------------------------------------------------------


 INCAR:
 POTCAR:    PAW_PBE C 08Apr2002                   
 POTCAR:    PAW_PBE C 08Apr2002                   
   SHA256 =  253f7b50bb8d59471dbedb8285d89021f4a42ed1a2c5d38a03a736e69125dd95 C/
   COPYR  = (c) Copyright 08Apr2002 Georg Kresse                                
   COPYR  = This file is part of the software VASP. Any use, copying, and all ot
   COPYR  = If you do not have a valid VASP license, you may not use, copy or di
   VRHFIN =C: s2p2                                                              
   LEXCH  = PE                                                                  
   EATOM  =   147.1560 eV,   10.8157 Ry                                         
                                                                                
   TITEL  = PAW_PBE C 08Apr2002                                                 
   LULTRA =        F    use ultrasoft PP ?                                      
   IUNSCR =        1    unscreen: 0-lin 1-nonlin 2-no                           
   RPACOR =    1.200    partial core radius                                     
   POMASS =   12.011; ZVAL   =    4.000    mass and valenz                      
   RCORE  =    1.500    outmost cutoff radius                                   
   RWIGS  =    1.630; RWIGS  =    0.863    wigner-seitz radius (au A)           
   ENMAX  =  400.000; ENMIN  =  300.000 eV                                      
   ICORE  =        2    local potential                                         
   LCOR   =        T    correct aug charges                                     
   LPAW   =        T    paw PP                                                  
   EAUG   =  644.873                                                            
   DEXC   =    0.000                                                            
   RMAX   =    1.529    core radius for proj-oper                               
   RAUG   =    1.300    factor for augmentation sphere                          
   RDEP   =    1.501    radius for radial grids                                 
   RDEPT  =    1.300    core radius for aug-charge                              
                                                                                
   Atomic configuration                                                         
    4 entries                                                                   
     n  l   j            E        occ.                                          
     1  0  0.50      -273.3789   2.0000                                         
     2  0  0.50       -13.7508   2.0000                                         
     2  1  0.50        -5.2854   2.0000                                         
     3  2  1.50        -5.4423   0.0000                                         
   Description                                                                  
     l       E           TYP  RCUT    TYP  RCUT                                 
     0    -13.7508458     23  1.200                                             
     0     -8.2022199     23  1.200                                             
     1     -5.2854383     23  1.500                                             
     1     34.0145650     23  1.500                                             
     2     -5.4423304      7  1.500                                             
  local pseudopotential read in
  partial core-charges read in
  partial kinetic energy density read in
  atomic valenz-charges read in
  non local Contribution for L=           0  read in
    real space projection operators read in
  non local Contribution for L=           0  read in
    real space projection operators read in
  non local Contribution for L=           1  read in
    real space projection operators read in
  non local Contribution for L=           1  read in
    real space projection operators read in
    PAW grid and wavefunctions read in
 
   number of l-projection  operators is LMAX  =           4
   number of lm-projection operators is LMMAX =           8
 

 ----------------------------------------------------------------------------- 
|                                                                             |
|  ADVICE TO THIS USER RUNNING 'VASP/VAMP'   (HEAR YOUR MASTER'S VOICE ...):  |
|                                                                             |
|      You have a (more or less) 'large supercell' and for larger cells       |
|      it might be more efficient to use real space projection opertators     |
|      So try LREAL= Auto  in the INCAR   file.                               |
|      Mind:          For very  accurate calculation you might also keep the  |
|      reciprocal projection scheme          (i.e. LREAL=.FALSE.)             |
|                                                                             |
 ----------------------------------------------------------------------------- 

  PAW_PBE C 08Apr2002                   :
 energy of atom  1       EATOM= -147.1560
 kinetic energy error for atom=    0.0012 (will be added to EATOM!!)
 
 
 POSCAR: POSCAR file written by OVITO Basic 3.7.1
  positions in direct lattice
  velocities in cartesian coordinates
 exchange correlation table for  LEXCH =        8
   RHO(1)=    0.500       N(1)  =     2000
   RHO(2)=  100.500       N(2)  =     4000
 


--------------------------------------------------------------------------------------------------------


 ion  position               nearest neighbor table
   1  0.000  0.000  0.458-   2 1.41  48 1.42  14 1.42
   2  0.083  0.083  0.456-   1 1.41  17 1.42   5 1.42
   3  0.000  0.000  0.382-   4 1.41  50 1.42  16 1.42
   4  0.083  0.083  0.384-   3 1.41  19 1.42   7 1.42
   5  0.999  0.251  0.455-   2 1.42   6 1.42  52 1.44
   6  0.083  0.333  0.456-   9 1.41  21 1.42   5 1.42
   7  0.999  0.251  0.385-   4 1.42   8 1.42  54 1.44
   8  0.083  0.333  0.384-  11 1.41  23 1.42   7 1.42
   9  0.000  0.499  0.458-   6 1.41  56 1.42  10 1.42
  10  0.084  0.583  0.456-  13 1.42   9 1.42  25 1.43
  11  0.000  0.499  0.382-   8 1.41  58 1.42  12 1.42
  12  0.084  0.583  0.384-  15 1.42  11 1.42  27 1.43
  13  0.000  0.750  0.457-  60 1.42  10 1.42  14 1.42
  14  0.084  0.833  0.456-  13 1.42   1 1.42  29 1.43
  15  0.000  0.750  0.383-  62 1.42  12 1.42  16 1.42
  16  0.084  0.833  0.384-  15 1.42   3 1.42  31 1.43
  17  0.251  0.999  0.455-   2 1.42  18 1.42  30 1.44
  18  0.333  0.083  0.456-  33 1.41  21 1.42  17 1.42
  19  0.251  0.999  0.385-   4 1.42  20 1.42  32 1.44
  20  0.333  0.083  0.384-  35 1.41  23 1.42  19 1.42
  21  0.251  0.251  0.455-   6 1.42  18 1.42  22 1.44
  22  0.334  0.334  0.450-  37 1.43  25 1.43  21 1.44
  23  0.251  0.251  0.385-   8 1.42  20 1.42  24 1.44
  24  0.334  0.334  0.390-  39 1.43  27 1.43  23 1.44
  25  0.246  0.501  0.448-  22 1.43  10 1.43  26 1.46
  26  0.293  0.603  0.434-  28 1.43  29 1.46  25 1.46
  27  0.246  0.501  0.392-  24 1.43  12 1.43  28 1.46
  28  0.293  0.603  0.406-  26 1.43  31 1.46  27 1.46
  29  0.246  0.753  0.448-  30 1.43  14 1.43  26 1.46
  30  0.334  0.832  0.450-  43 1.43  29 1.43  17 1.44
  31  0.246  0.753  0.392-  32 1.43  16 1.43  28 1.46
  32  0.334  0.832  0.390-  45 1.43  31 1.43  19 1.44
  33  0.499  0.000  0.457-  18 1.41  44 1.42  34 1.42
  34  0.583  0.084  0.456-  47 1.42  33 1.42  37 1.43
  35  0.499  0.000  0.383-  20 1.41  46 1.42  36 1.42
  36  0.583  0.084  0.384-  49 1.42  35 1.42  39 1.43
  37  0.501  0.246  0.448-  22 1.43  34 1.43  38 1.46
  38  0.603  0.293  0.434-  40 1.43  51 1.46  37 1.46
  39  0.501  0.246  0.392-  24 1.43  36 1.43  40 1.46
  40  0.603  0.293  0.406-  38 1.43  53 1.46  39 1.46
  41  0.603  0.603  0.434-  42 1.43  43 1.46  55 1.46
  42  0.603  0.603  0.406-  41 1.43  45 1.46  57 1.46
  43  0.501  0.753  0.448-  30 1.43  44 1.43  41 1.46
  44  0.583  0.833  0.456-  59 1.42  33 1.42  43 1.43
  45  0.501  0.753  0.392-  32 1.43  46 1.43  42 1.46
  46  0.583  0.833  0.384-  61 1.42  35 1.42  45 1.43
  47  0.750  0.000  0.457-  60 1.42  34 1.42  48 1.42
  48  0.833  0.084  0.456-  47 1.42   1 1.42  51 1.43
  49  0.750  0.000  0.383-  62 1.42  36 1.42  50 1.42
  50  0.833  0.084  0.384-  49 1.42   3 1.42  53 1.43
  51  0.753  0.246  0.448-  52 1.43  48 1.43  38 1.46
  52  0.832  0.334  0.450-  55 1.43  51 1.43   5 1.44
  53  0.753  0.246  0.392-  54 1.43  50 1.43  40 1.46
  54  0.832  0.334  0.390-  57 1.43  53 1.43   7 1.44
  55  0.753  0.501  0.448-  52 1.43  56 1.43  41 1.46
  56  0.833  0.583  0.456-  59 1.42   9 1.42  55 1.43
  57  0.753  0.501  0.392-  54 1.43  58 1.43  42 1.46
  58  0.833  0.583  0.384-  61 1.42  11 1.42  57 1.43
  59  0.750  0.750  0.457-  60 1.42  56 1.42  44 1.42
  60  0.833  0.833  0.458-  59 1.42  13 1.42  47 1.42
  61  0.750  0.750  0.383-  62 1.42  58 1.42  46 1.42
  62  0.833  0.833  0.382-  61 1.42  15 1.42  49 1.42
 

IMPORTANT INFORMATION: All symmetrisations will be switched off!
NOSYMM: (Re-)initialisation of all symmetry stuff for point group C_1.

 
 

Automatic generation of k-mesh.
 generate k-points for:    5    5    1
Space group operators:
 irot       det(A)        alpha          n_x          n_y          n_z        tau_x        tau_y        tau_z
    1     1.000000     0.000001     1.000000     0.000000     0.000000     0.000000     0.000000     0.000000
 
 Subroutine IBZKPT returns following result:
 ===========================================
 
 Found     13 irreducible k-points:
 
 Following reciprocal coordinates:
            Coordinates               Weight
  0.000000  0.000000  0.000000      1.000000
  0.200000  0.000000 -0.000000      2.000000
  0.400000  0.000000 -0.000000      2.000000
 -0.000000  0.200000 -0.000000      2.000000
  0.200000  0.200000  0.000000      2.000000
  0.400000  0.200000  0.000000      2.000000
 -0.400000  0.200000  0.000000      2.000000
 -0.200000  0.200000  0.000000      2.000000
 -0.000000  0.400000 -0.000000      2.000000
  0.200000  0.400000  0.000000      2.000000
  0.400000  0.400000  0.000000      2.000000
 -0.400000  0.400000  0.000000      2.000000
 -0.200000  0.400000  0.000000      2.000000
 
 Following cartesian coordinates:
            Coordinates               Weight
  0.000000  0.000000  0.000000      1.000000
  0.020414 -0.011797  0.000000      2.000000
  0.040827 -0.023594  0.000000      2.000000
  0.000008  0.023576 -0.000000      2.000000
  0.020422  0.011779 -0.000000      2.000000
  0.040835 -0.000018  0.000000      2.000000
 -0.040819  0.047170 -0.000000      2.000000
 -0.020406  0.035373 -0.000000      2.000000
  0.000016  0.047152 -0.000000      2.000000
  0.020430  0.035355 -0.000000      2.000000
  0.040843  0.023558 -0.000000      2.000000
 -0.040811  0.070746 -0.000000      2.000000
 -0.020398  0.058949 -0.000000      2.000000
 
 TETIRR: Found     72 inequivalent tetrahedra from      150


--------------------------------------------------------------------------------------------------------




 Dimension of arrays:
   k-points           NKPTS =     13   k-points in BZ     NKDIM =     13   number of bands    NBANDS=    192
   number of dos      NEDOS =    301   number of ions     NIONS =     62
   non local maximal  LDIM  =      4   non local SUM 2l+1 LMDIM =      8
   total plane-waves  NPLWV = ******
   max r-space proj   IRMAX =      1   max aug-charges    IRDMAX=  12775
   dimension x,y,z NGX =    96 NGY =   96 NGZ =  480
   dimension x,y,z NGXF=   192 NGYF=  192 NGZF=  960
   support grid    NGXF=   192 NGYF=  192 NGZF=  960
   ions per type =              62
   NGX,Y,Z   is equivalent  to a cutoff of  16.29, 16.29, 15.98 a.u.
   NGXF,Y,Z  is equivalent  to a cutoff of  32.59, 32.58, 31.95 a.u.

 SYSTEM =  unknown system                          
 POSCAR =  POSCAR file written by OVITO Basic 3.7.1

 Startparameter for this run:
   NWRITE =      2    write-flag & timer
   PREC   = accura    normal or accurate (medium, high low for compatibility)
   ISTART =      0    job   : 0-new  1-cont  2-samecut
   ICHARG =      2    charge: 1-file 2-atom 10-const
   ISPIN  =      2    spin polarized calculation?
   LNONCOLLINEAR =      F non collinear calculations
   LSORBIT =      F    spin-orbit coupling
   INIWAV =      1    electr: 0-lowe 1-rand  2-diag
   LASPH  =      F    aspherical Exc in radial PAW
   METAGGA=      F    non-selfconsistent MetaGGA calc.

 Electronic Relaxation 1
   ENCUT  =  850.0 eV  62.47 Ry    7.90 a.u.  23.29 23.29118.75*2*pi/ulx,y,z
   ENINI  =  850.0     initial cutoff
   ENAUG  =  644.9 eV  augmentation charge cutoff
   NELM   =    150;   NELMIN=  2; NELMDL= -5     # of ELM steps 
   EDIFF  = 0.1E-06   stopping-criterion for ELM
   LREAL  =      F    real-space projection
   NLSPLINE    = F    spline interpolate recip. space projectors
   LCOMPAT=      F    compatible to vasp.4.4
   GGA_COMPAT  = T    GGA compatible to vasp.4.4-vasp.4.6
   LMAXPAW     = -100 max onsite density
   LMAXMIX     =    2 max onsite mixed and CHGCAR
   VOSKOWN=      0    Vosko Wilk Nusair interpolation
   ROPT   =    0.00000
 Ionic relaxation
   EDIFFG = 0.1E-05   stopping-criterion for IOM
   NSW    =      1    number of steps for IOM
   NBLOCK =      1;   KBLOCK =      1    inner block; outer block 
   IBRION =     -1    ionic relax: 0-MD 1-quasi-New 2-CG
   NFREE  =      0    steps in history (QN), initial steepest desc. (CG)
   ISIF   =      2    stress and relaxation
   IWAVPR =     10    prediction:  0-non 1-charg 2-wave 3-comb
   ISYM   =      0    0-nonsym 1-usesym 2-fastsym
   LCORR  =      T    Harris-Foulkes like correction to forces

   POTIM  = 0.5000    time-step for ionic-motion
   TEIN   =    0.0    initial temperature
   TEBEG  =    0.0;   TEEND  =   0.0 temperature during run
   SMASS  =  -3.00    Nose mass-parameter (am)
   estimated Nose-frequenzy (Omega)   =  0.10E-29 period in steps =****** mass=  -0.219E-26a.u.
   SCALEE = 1.0000    scale energy and forces
   NPACO  =    256;   APACO  = 16.0  distance and # of slots for P.C.
   PSTRESS=    0.0 pullay stress

  Mass of Ions in am
   POMASS =  12.01
  Ionic Valenz
   ZVAL   =   4.00
  Atomic Wigner-Seitz radii
   RWIGS  =  -1.00
  virtual crystal weights 
   VCA    =   1.00
   NELECT =     248.0000    total number of electrons
   NUPDOWN=      -1.0000    fix difference up-down

 DOS related values:
   EMIN   =  10.00;   EMAX   =-10.00  energy-range for DOS
   EFERMI =   0.00
   ISMEAR =    -5;   SIGMA  =   0.02  broadening in eV -4-tet -1-fermi 0-gaus

 Electronic relaxation 2 (details)
   IALGO  =     38    algorithm
   LDIAG  =      T    sub-space diagonalisation (order eigenvalues)
   LSUBROT=      F    optimize rotation matrix (better conditioning)
   TURBO    =      0    0=normal 1=particle mesh
   IRESTART =      0    0=no restart 2=restart with 2 vectors
   NREBOOT  =      0    no. of reboots
   NMIN     =      0    reboot dimension
   EREF     =   0.00    reference energy to select bands
   IMIX   =      4    mixing-type and parameters
     AMIX     =   0.40;   BMIX     =  1.00
     AMIX_MAG =   1.60;   BMIX_MAG =  1.00
     AMIN     =   0.10
     WC   =   100.;   INIMIX=   1;  MIXPRE=   1;  MAXMIX= -45

 Intra band minimization:
   WEIMIN = 0.0000     energy-eigenvalue tresh-hold
   EBREAK =  0.13E-09  absolut break condition
   DEPER  =   0.30     relativ break condition  

   TIME   =   0.40     timestep for ELM

  volume/ion in A,a.u.               =      66.95       451.80
  Fermi-wavevector in a.u.,A,eV,Ry     =   0.639999  1.209424  5.572936  0.409599
  Thomas-Fermi vector in A             =   1.705861
 
 Write flags
   LWAVE        =      F    write WAVECAR
   LDOWNSAMPLE  =      F    k-point downsampling of WAVECAR
   LCHARG       =      F    write CHGCAR
   LVTOT        =      F    write LOCPOT, total local potential
   LVHAR        =      F    write LOCPOT, Hartree potential only
   LELF         =      F    write electronic localiz. function (ELF)
   LORBIT       =      0    0 simple, 1 ext, 2 COOP (PROOUT), +10 PAW based schemes


 Dipole corrections
   LMONO  =      F    monopole corrections only (constant potential shift)
   LDIPOL =      F    correct potential (dipole corrections)
   IDIPOL =      0    1-x, 2-y, 3-z, 4-all directions 
   EPSILON=  1.0000000 bulk dielectric constant

 Exchange correlation treatment:
   GGA     =    --    GGA type
   LEXCH   =     8    internal setting for exchange type
   VOSKOWN=      0    Vosko Wilk Nusair interpolation
   LHFCALC =     F    Hartree Fock is set to
   LHFONE  =     F    Hartree Fock one center treatment
   AEXX    =    0.0000 exact exchange contribution

 Linear response parameters
   LEPSILON=     F    determine dielectric tensor
   LRPA    =     F    only Hartree local field effects (RPA)
   LNABLA  =     F    use nabla operator in PAW spheres
   LVEL    =     F    velocity operator in full k-point grid
   LINTERFAST=   F  fast interpolation
   KINTER  =     0    interpolate to denser k-point grid
   CSHIFT  =0.1000    complex shift for real part using Kramers Kronig
   OMEGAMAX=  -1.0    maximum frequency
   DEG_THRESHOLD= 0.2000000E-02 threshold for treating states as degnerate
   RTIME   =   -0.100 relaxation time in fs
  (WPLASMAI=    0.000 imaginary part of plasma frequency in eV, 0.658/RTIME)
   DFIELD  = 0.0000000 0.0000000 0.0000000 field for delta impulse in time
 
 Orbital magnetization related:
   ORBITALMAG=     F  switch on orbital magnetization
   LCHIMAG   =     F  perturbation theory with respect to B field
   DQ        =  0.001000  dq finite difference perturbation B field
   LLRAUG    =     F  two centre corrections for induced B field



--------------------------------------------------------------------------------------------------------


 Static calculation
 charge density and potential will be updated during run
 spin polarized calculation
 Variant of blocked Davidson
 Davidson routine will perform the subspace rotation
 perform sub-space diagonalisation
    after iterative eigenvector-optimisation
 modified Broyden-mixing scheme, WC =      100.0
 initial mixing is a Kerker type mixing with AMIX =  0.4000 and BMIX =      1.0000
 Hartree-type preconditioning will be used
 using additional bands           68
 reciprocal scheme for non local part
 use partial core corrections
 calculate Harris-corrections to forces 
   (improved forces if not selfconsistent)
 use gradient corrections 
 use of overlap-Matrix (Vanderbilt PP)
 Fermi weights with tetrahedron method with Bloechl corrections


--------------------------------------------------------------------------------------------------------


  energy-cutoff  :      850.00
  volume of cell :     4150.85
      direct lattice vectors                 reciprocal lattice vectors
     9.795472477 -0.003335275 -0.000000532     0.102067896 -0.058984534  0.000000066
     4.901452904  8.481562067  0.000008392     0.000040137  0.117879615 -0.000000121
    -0.000002667  0.000051244 49.951752334     0.000000001 -0.000000020  0.020019318

  length of vectors
     9.795473045  9.795975483 49.951752334     0.117885668  0.117879622  0.020019318


 
 k-points in units of 2pi/SCALE and weight: read from INCAR                         
   0.00000000  0.00000000  0.00000000       0.040
   0.02041358 -0.01179691  0.00000001       0.080
   0.04082716 -0.02359381  0.00000003       0.080
   0.00000803  0.02357592 -0.00000002       0.080
   0.02042161  0.01177902 -0.00000001       0.080
   0.04083519 -0.00001789  0.00000000       0.080
  -0.04081913  0.04716974 -0.00000005       0.080
  -0.02040555  0.03537283 -0.00000004       0.080
   0.00001605  0.04715185 -0.00000005       0.080
   0.02042963  0.03535494 -0.00000004       0.080
   0.04084321  0.02355803 -0.00000002       0.080
  -0.04081110  0.07074566 -0.00000007       0.080
  -0.02039752  0.05894875 -0.00000006       0.080
 
 k-points in reciprocal lattice and weights: read from INCAR                         
   0.00000000  0.00000000  0.00000000       0.040
   0.20000000  0.00000000 -0.00000000       0.080
   0.40000000  0.00000000 -0.00000000       0.080
  -0.00000000  0.20000000 -0.00000000       0.080
   0.20000000  0.20000000  0.00000000       0.080
   0.40000000  0.20000000  0.00000000       0.080
  -0.40000000  0.20000000  0.00000000       0.080
  -0.20000000  0.20000000  0.00000000       0.080
  -0.00000000  0.40000000 -0.00000000       0.080
   0.20000000  0.40000000  0.00000000       0.080
   0.40000000  0.40000000  0.00000000       0.080
  -0.40000000  0.40000000  0.00000000       0.080
  -0.20000000  0.40000000  0.00000000       0.080
 
 position of ions in fractional coordinates (direct lattice) 
   0.00037109  0.00032523  0.45751524
   0.08342726  0.08340273  0.45628254
   0.00037250  0.00032877  0.38248712
   0.08343042  0.08340672  0.38372384
   0.99854131  0.25059044  0.45537546
   0.08342018  0.33290984  0.45627529
   0.99854133  0.25059576  0.38463039
   0.08342335  0.33290960  0.38373052
   0.00038317  0.49901811  0.45750420
   0.08429182  0.58271153  0.45592849
   0.00038331  0.49902457  0.38249720
   0.08429223  0.58271391  0.38406972
   0.00008844  0.74981718  0.45722149
   0.08429782  0.83273458  0.45593609
   0.00009383  0.74982104  0.38277594
   0.08429768  0.83273928  0.38406292
   0.25060881  0.99853024  0.45536224
   0.33293573  0.08339591  0.45626146
   0.25061222  0.99853280  0.38464318
   0.33293176  0.08340155  0.38374391
   0.25060779  0.25057965  0.45535688
   0.33378343  0.33373846  0.44964417
   0.25061016  0.25058240  0.38464824
   0.33378356  0.33374044  0.39035558
   0.24574330  0.50142030  0.44800330
   0.29315471  0.60329186  0.43433977
   0.24574884  0.50142386  0.39199446
   0.29315909  0.60329155  0.40565753
   0.24575157  0.75255022  0.44800833
   0.33379291  0.83219732  0.44965051
   0.24575836  0.75254918  0.39199006
   0.33379421  0.83220201  0.39034973
   0.49905605  0.00034054  0.45748629
   0.58275880  0.08422018  0.45591358
   0.49906205  0.00034232  0.38251443
   0.58275933  0.08422237  0.38408419
   0.50146878  0.24566623  0.44799811
   0.60335032  0.29307678  0.43433764
   0.50147186  0.24567229  0.39199976
   0.60334934  0.29308106  0.40566003
   0.60335444  0.60331545  0.43433686
   0.60335576  0.60331739  0.40566065
   0.50147554  0.75259461  0.44800005
   0.58275836  0.83276000  0.45591122
   0.50147971  0.75259436  0.39199825
   0.58276017  0.83276599  0.38408680
   0.74987699  0.00001575  0.45721126
   0.83278583  0.08423183  0.45593436
   0.74987824  0.00002454  0.38278580
   0.83278871  0.08423304  0.38406461
   0.75259051  0.24569769  0.44801454
   0.83219577  0.33377070  0.44966559
   0.75258855  0.24570592  0.39198427
   0.83220005  0.33377243  0.39033521
   0.75260648  0.50144134  0.44801139
   0.83278609  0.58272674  0.45592432
   0.75260479  0.50144689  0.39198728
   0.83279150  0.58272984  0.38407417
   0.74989578  0.74984738  0.45720431
   0.83328610  0.83322285  0.45844632
   0.74989674  0.74985098  0.38279248
   0.83328861  0.83322554  0.38155043
 
 position of ions in cartesian coordinates  (Angst):
   0.00522786  0.00278065 22.85368810
   1.22600280  0.70713056 22.79211293
   0.00525921  0.00280682 19.10590213
   1.22605351  0.70716071 19.16767883
  11.00943992  2.12209131 22.74680398
   2.44888077  2.82334060 22.79175293
  11.00946643  2.12213279 19.21296365
   2.44891080  2.82333485 19.16801443
   2.44966589  4.23247527 22.85314090
   3.68181009  4.94204620 22.77443169
   2.44969908  4.23252616 19.10640948
   3.68182599  4.94206274 19.18496026
   3.67605866  6.35964412 22.83902116
   4.90734505  7.06263223 22.77481351
   3.67613061  6.35967302 19.12033514
   4.90736696  7.06266841 19.18462285
   7.34907945  8.46828367 22.74615002
   3.67002272  0.70624052 22.79106017
   7.34912557  8.46830175 19.21360897
   3.67001163  0.70628466 19.16868134
   3.68302491  2.12449438 22.74587592
   4.90536854  2.82953324 22.46051704
   3.68306173  2.12451405 19.21385540
   4.90537969  2.82954697 19.49894808
   4.86485852  4.25203072 22.37855375
   5.82859440  5.11590189 21.69603768
   4.86493042  4.25205806 19.58081410
   5.82863580  5.11589776 20.26330932
   6.09584098  6.38200469 22.37880735
   7.34863405  7.05724298 22.46083786
   6.09590259  6.38199300 19.58059644
   7.34866993  7.05727972 19.49865969
   4.89015777  0.00124729 22.85224164
   6.12119780  0.71239841 22.77368246
   4.89022548  0.00125853 19.10726561
   6.12121391  0.71241325 19.18567883
   6.11624385  2.08198377 22.37829249
   7.34660230  2.48375880 21.69592857
   6.11630387  2.08203229 19.58107694
   7.34661374  2.48379366 20.26343131
   8.86726291  5.11506732 21.69589192
   8.86728545  5.11508228 20.26346525
   8.60099571  6.38152833 22.37839379
   9.79012613  7.06118530 22.77357125
   8.60103551  6.38152331 19.58100565
   9.79017348  7.06123242 19.18581551
   7.34547546 -0.00234400 22.83850303
   8.57038776  0.71166326 22.77472045
   7.34553092 -0.00227330 19.12082098
   8.57042212  0.71166986 19.18470075
   8.57625409  2.08141307 22.37911309
   9.78771090  2.82814437 22.46158640
   8.57627540  2.08147999 19.58030284
   9.78776146  2.82815595 19.49793001
   9.82992596  4.25051862 22.37895761
  11.01373970  4.93967884 22.77422294
   9.82993678  4.25056284 19.58045536
  11.01380811  4.93970142 19.18518215
  11.02092389  6.35739943 22.83816242
  12.24643242  7.06427558 22.90020372
  11.02095113  6.35742611 19.12116102
  12.24647032  7.06429441 19.05911908
 


--------------------------------------------------------------------------------------------------------


 k-point  1 :   0.0000 0.0000 0.0000  plane waves:  233823
 k-point  2 :   0.2000 0.0000-0.0000  plane waves:  233534
 k-point  3 :   0.4000 0.0000-0.0000  plane waves:  233579
 k-point  4 :  -0.0000 0.2000-0.0000  plane waves:  233533
 k-point  5 :   0.2000 0.2000 0.0000  plane waves:  233536
 k-point  6 :   0.4000 0.2000 0.0000  plane waves:  233569
 k-point  7 :  -0.4000 0.2000 0.0000  plane waves:  233604
 k-point  8 :  -0.2000 0.2000 0.0000  plane waves:  233575
 k-point  9 :  -0.0000 0.4000-0.0000  plane waves:  233580
 k-point 10 :   0.2000 0.4000 0.0000  plane waves:  233570
 k-point 11 :   0.4000 0.4000 0.0000  plane waves:  233582
 k-point 12 :  -0.4000 0.4000 0.0000  plane waves:  233596
 k-point 13 :  -0.2000 0.4000 0.0000  plane waves:  233600

 maximum and minimum number of plane-waves per node :     29269    29110

 maximum number of plane-waves:    233823
 maximum index in each direction: 
   IXMAX=   23   IYMAX=   23   IZMAX=  118
   IXMIN=  -23   IYMIN=  -23   IZMIN= -118


 parallel 3D FFT for wavefunctions:
    minimum data exchange during FFTs selected (reduces bandwidth)
 parallel 3D FFT for charge:
    minimum data exchange during FFTs selected (reduces bandwidth)


 total amount of memory used by VASP MPI-rank0   612284. kBytes
=======================================================================

   base      :      30000. kBytes
   nonl-proj :      53362. kBytes
   fftplans  :      41096. kBytes
   grid      :      97443. kBytes
   one-center:         49. kBytes
   wavefun   :     390334. kBytes
 
     INWAV:  cpu time    0.0000: real time    0.0000
 Broyden mixing: mesh for mixing (old mesh)
   NGX = 47   NGY = 47   NGZ =237
  (NGX  =192   NGY  =192   NGZ  =960)
  gives a total of 523533 points

 initial charge density was supplied:
 charge density of overlapping atoms calculated
 number of electron     248.0000000 magnetization      62.0000000
 keeping initial charge density in first step


--------------------------------------------------------------------------------------------------------


 Maximum index for augmentation-charges          583 (set IRDMAX)


--------------------------------------------------------------------------------------------------------


 First call to EWALD:  gamma=   0.110
 Maximum number of real-space cells 5x 5x 1
 Maximum number of reciprocal cells 2x 2x 8

    FEWALD:  cpu time    0.0023: real time    0.0023


--------------------------------------- Iteration      1(   1)  ---------------------------------------


    POTLOK:  cpu time    0.8704: real time    0.8843
    SETDIJ:  cpu time    0.0255: real time    0.0270
     EDDAV:  cpu time  164.6372: real time  165.1210
 BZINTS: Fermi energy:  6.982686;248.000000 electrons
         Band energy:-598.767081;  BLOECHL correction: -0.034709
       DOS:  cpu time    0.0320: real time    0.0500
    --------------------------------------------
      LOOP:  cpu time  165.5651: real time  166.0824

 eigenvalue-minimisations  : 10380
 total energy-change (2. order) : 0.2920149E+04  (-0.1009703E+05)
 number of electron     248.0000000 magnetization      62.0000000
 augmentation part      248.0000000 magnetization      62.0000000

 Free energy of the ion-electron system (eV)
  ---------------------------------------------------
  alpha Z        PSCENC =        76.07398680
  Ewald energy   TEWEN  =    211456.34377278
  -Hartree energ DENC   =   -217931.70648985
  -exchange      EXHF   =         0.00000000
  -V(xc)+E(xc)   XCENC  =       829.36208949
  PAW double counting   =      6720.41546902    -6755.16969339
  entropy T*S    EENTRO =         0.00000000
  eigenvalues    EBANDS =      -598.76708124
  atomic energy  EATOM  =      9123.59704331
  Solvation  Ediel_sol  =         0.00000000
  ---------------------------------------------------
  free energy    TOTEN  =      2920.14909692 eV

  energy without entropy =     2920.14909692  energy(sigma->0) =     2920.14909692


--------------------------------------------------------------------------------------------------------




--------------------------------------- Iteration      1(   2)  ---------------------------------------


     EDDAV:  cpu time  245.9228: real time  246.5320
 BZINTS: Fermi energy: -2.619495;248.000000 electrons
         Band energy:***********;  BLOECHL correction: -0.000076
       DOS:  cpu time    0.0237: real time    0.0237
    --------------------------------------------
      LOOP:  cpu time  245.9465: real time  246.5557

 eigenvalue-minimisations  : 16476
 total energy-change (2. order) :-0.2834167E+04  (-0.2589173E+04)
 number of electron     248.0000000 magnetization      62.0000000
 augmentation part      248.0000000 magnetization      62.0000000

 Free energy of the ion-electron system (eV)
  ---------------------------------------------------
  alpha Z        PSCENC =        76.07398680
  Ewald energy   TEWEN  =    211456.34377278
  -Hartree energ DENC   =   -217931.70648985
  -exchange      EXHF   =         0.00000000
  -V(xc)+E(xc)   XCENC  =       829.36208949
  PAW double counting   =      6720.41546902    -6755.16969339
  entropy T*S    EENTRO =         0.00000000
  eigenvalues    EBANDS =     -3432.93410235
  atomic energy  EATOM  =      9123.59704331
  Solvation  Ediel_sol  =         0.00000000
  ---------------------------------------------------
  free energy    TOTEN  =        85.98207581 eV

  energy without entropy =       85.98207581  energy(sigma->0) =       85.98207581


--------------------------------------------------------------------------------------------------------




--------------------------------------- Iteration      1(   3)  ---------------------------------------


     EDDAV:  cpu time  205.6496: real time  206.1484
 BZINTS: Fermi energy: -6.714209;248.000000 electrons
         Band energy:***********;  BLOECHL correction:  0.000000
       DOS:  cpu time    0.0050: real time    0.0050
    --------------------------------------------
      LOOP:  cpu time  205.6546: real time  206.1534

 eigenvalue-minimisations  : 13176
 total energy-change (2. order) :-0.6302290E+03  (-0.6272681E+03)
 number of electron     248.0000000 magnetization      62.0000000
 augmentation part      248.0000000 magnetization      62.0000000

 Free energy of the ion-electron system (eV)
  ---------------------------------------------------
  alpha Z        PSCENC =        76.07398680
  Ewald energy   TEWEN  =    211456.34377278
  -Hartree energ DENC   =   -217931.70648985
  -exchange      EXHF   =         0.00000000
  -V(xc)+E(xc)   XCENC  =       829.36208949
  PAW double counting   =      6720.41546902    -6755.16969339
  entropy T*S    EENTRO =         0.00000000
  eigenvalues    EBANDS =     -4063.16311222
  atomic energy  EATOM  =      9123.59704331
  Solvation  Ediel_sol  =         0.00000000
  ---------------------------------------------------
  free energy    TOTEN  =      -544.24693406 eV

  energy without entropy =     -544.24693406  energy(sigma->0) =     -544.24693406


--------------------------------------------------------------------------------------------------------




--------------------------------------- Iteration      1(   4)  ---------------------------------------


     EDDAV:  cpu time  204.8060: real time  205.5499
 BZINTS: Fermi energy: -6.889724;248.000000 electrons
         Band energy:***********;  BLOECHL correction:  0.000000
       DOS:  cpu time    0.0061: real time    0.0063
    --------------------------------------------
      LOOP:  cpu time  204.8121: real time  205.5562

 eigenvalue-minimisations  : 13164
 total energy-change (2. order) :-0.2689251E+02  (-0.2674076E+02)
 number of electron     248.0000000 magnetization      62.0000000
 augmentation part      248.0000000 magnetization      62.0000000

 Free energy of the ion-electron system (eV)
  ---------------------------------------------------
  alpha Z        PSCENC =        76.07398680
  Ewald energy   TEWEN  =    211456.34377278
  -Hartree energ DENC   =   -217931.70648985
  -exchange      EXHF   =         0.00000000
  -V(xc)+E(xc)   XCENC  =       829.36208949
  PAW double counting   =      6720.41546902    -6755.16969339
  entropy T*S    EENTRO =         0.00000000
  eigenvalues    EBANDS =     -4090.05562301
  atomic energy  EATOM  =      9123.59704331
  Solvation  Ediel_sol  =         0.00000000
  ---------------------------------------------------
  free energy    TOTEN  =      -571.13944485 eV

  energy without entropy =     -571.13944485  energy(sigma->0) =     -571.13944485


--------------------------------------------------------------------------------------------------------




--------------------------------------- Iteration      1(   5)  ---------------------------------------


     EDDAV:  cpu time  216.5331: real time  217.0685
 BZINTS: Fermi energy: -6.879144;248.000000 electrons
         Band energy:***********;  BLOECHL correction:  0.000000
       DOS:  cpu time    0.0059: real time    0.0059
    CHARGE:  cpu time    7.4882: real time    7.5063
    MIXING:  cpu time    0.0317: real time    0.0487
    --------------------------------------------
      LOOP:  cpu time  224.0590: real time  224.6294

 eigenvalue-minimisations  : 14100
 total energy-change (2. order) :-0.7050963E+00  (-0.7027830E+00)
 number of electron     247.9999992 magnetization      60.5545979
 augmentation part        6.4959269 magnetization      56.8268607

 Broyden mixing:
  rms(total) = 0.49235E+01    rms(broyden)= 0.49235E+01
  rms(prec ) = 0.49514E+01
  weight for this iteration     100.00

 Free energy of the ion-electron system (eV)
  ---------------------------------------------------
  alpha Z        PSCENC =        76.07398680
  Ewald energy   TEWEN  =    211456.34377278
  -Hartree energ DENC   =   -217931.70648985
  -exchange      EXHF   =         0.00000000
  -V(xc)+E(xc)   XCENC  =       829.36208949
  PAW double counting   =      6720.41546902    -6755.16969339
  entropy T*S    EENTRO =         0.00000000
  eigenvalues    EBANDS =     -4090.76071933
  atomic energy  EATOM  =      9123.59704331
  Solvation  Ediel_sol  =         0.00000000
  ---------------------------------------------------
  free energy    TOTEN  =      -571.84454117 eV

  energy without entropy =     -571.84454117  energy(sigma->0) =     -571.84454117


--------------------------------------------------------------------------------------------------------




--------------------------------------- Iteration      1(   6)  ---------------------------------------


    POTLOK:  cpu time    0.8621: real time    0.8708
    SETDIJ:  cpu time    0.0139: real time    0.0140
     EDDAV:  cpu time  189.3870: real time  189.8557
 BZINTS: Fermi energy: -5.400895;248.000000 electrons
         Band energy:***********;  BLOECHL correction: -0.014883
       DOS:  cpu time    0.0296: real time    0.0297
    CHARGE:  cpu time    7.5292: real time    7.5504
    MIXING:  cpu time    0.0165: real time    0.0273
    --------------------------------------------
      LOOP:  cpu time  197.8383: real time  198.3478

 eigenvalue-minimisations  : 11520
 total energy-change (2. order) : 0.1686575E+03  (-0.2673718E+02)
 number of electron     247.9999992 magnetization      58.7973218
 augmentation part        6.4004375 magnetization      52.8349853

 Broyden mixing:
  rms(total) = 0.29503E+01    rms(broyden)= 0.29503E+01
  rms(prec ) = 0.29704E+01
  weight for this iteration     100.00

 eigenvalues of (default mixing * dielectric matrix)
  average eigenvalue GAMMA=   1.0162
  1.0162

 Free energy of the ion-electron system (eV)
  ---------------------------------------------------
  alpha Z        PSCENC =        76.07398680
  Ewald energy   TEWEN  =    211456.34377278
  -Hartree energ DENC   =   -218273.06817568
  -exchange      EXHF   =         0.00000000
  -V(xc)+E(xc)   XCENC  =       939.98875931
  PAW double counting   =     12201.42367247   -12241.10648680
  entropy T*S    EENTRO =         0.00000000
  eigenvalues    EBANDS =     -3686.43961272
  atomic energy  EATOM  =      9123.59704331
  Solvation  Ediel_sol  =         0.00000000
  ---------------------------------------------------
  free energy    TOTEN  =      -403.18704052 eV

  energy without entropy =     -403.18704052  energy(sigma->0) =     -403.18704052


--------------------------------------------------------------------------------------------------------




--------------------------------------- Iteration      1(   7)  ---------------------------------------


    POTLOK:  cpu time    0.8417: real time    0.8507
    SETDIJ:  cpu time    0.0137: real time    0.0138
     EDDAV:  cpu time  192.4660: real time  192.9513
 BZINTS: Fermi energy: -4.338028;248.000000 electrons
         Band energy:***********;  BLOECHL correction: -0.022606
       DOS:  cpu time    0.0294: real time    0.0295
    CHARGE:  cpu time    7.3800: real time    7.3979
    MIXING:  cpu time    0.0178: real time    0.0178
    --------------------------------------------
      LOOP:  cpu time  200.7485: real time  201.2610

 eigenvalue-minimisations  : 12036
 total energy-change (2. order) :-0.1946405E+02  (-0.3168987E+01)
 number of electron     247.9999993 magnetization      56.2134429
 augmentation part        6.2199005 magnetization      50.8215466

 Broyden mixing:
  rms(total) = 0.20428E+01    rms(broyden)= 0.20428E+01
  rms(prec ) = 0.20487E+01
  weight for this iteration     100.00

 eigenvalues of (default mixing * dielectric matrix)
  average eigenvalue GAMMA=   1.4026
  0.8161  1.9891

 Free energy of the ion-electron system (eV)
  ---------------------------------------------------
  alpha Z        PSCENC =        76.07398680
  Ewald energy   TEWEN  =    211456.34377278
  -Hartree energ DENC   =   -218621.53406772
  -exchange      EXHF   =         0.00000000
  -V(xc)+E(xc)   XCENC  =       929.18668504
  PAW double counting   =     18197.77452176   -18240.35984388
  entropy T*S    EENTRO =         0.00000000
  eigenvalues    EBANDS =     -3343.73319099
  atomic energy  EATOM  =      9123.59704331
  Solvation  Ediel_sol  =         0.00000000
  ---------------------------------------------------
  free energy    TOTEN  =      -422.65109289 eV

  energy without entropy =     -422.65109289  energy(sigma->0) =     -422.65109289


--------------------------------------------------------------------------------------------------------




--------------------------------------- Iteration      1(   8)  ---------------------------------------


    POTLOK:  cpu time    0.8391: real time    0.8479
    SETDIJ:  cpu time    0.0133: real time    0.0133
     EDDAV:  cpu time  187.3795: real time  187.8504
 BZINTS: Fermi energy: -3.267341;248.000000 electrons
         Band energy:***********;  BLOECHL correction: -0.022096
       DOS:  cpu time    0.0270: real time    0.0270
    CHARGE:  cpu time    7.6585: real time    7.6788
    MIXING:  cpu time    0.0194: real time    0.0194
    --------------------------------------------
      LOOP:  cpu time  195.9367: real time  196.4369

 eigenvalue-minimisations  : 11616
 total energy-change (2. order) :-0.1028174E+02  (-0.1694469E+01)
 number of electron     247.9999993 magnetization      54.2686076
 augmentation part        6.0323010 magnetization      49.3502719

 Broyden mixing:
  rms(total) = 0.14591E+01    rms(broyden)= 0.14591E+01
  rms(prec ) = 0.14605E+01
  weight for this iteration     100.00

 eigenvalues of (default mixing * dielectric matrix)
  average eigenvalue GAMMA=   1.3632
  2.3822  0.9926  0.7150

 Free energy of the ion-electron system (eV)
  ---------------------------------------------------
  alpha Z        PSCENC =        76.07398680
  Ewald energy   TEWEN  =    211456.34377278
  -Hartree energ DENC   =   -218953.50956987
  -exchange      EXHF   =         0.00000000
  -V(xc)+E(xc)   XCENC  =       932.60404915
  PAW double counting   =     25203.73214893   -25247.91747623
  entropy T*S    EENTRO =         0.00000000
  eigenvalues    EBANDS =     -3023.85678753
  atomic energy  EATOM  =      9123.59704331
  Solvation  Ediel_sol  =         0.00000000
  ---------------------------------------------------
  free energy    TOTEN  =      -432.93283266 eV

  energy without entropy =     -432.93283266  energy(sigma->0) =     -432.93283266


--------------------------------------------------------------------------------------------------------




--------------------------------------- Iteration      1(   9)  ---------------------------------------


    POTLOK:  cpu time    0.8743: real time    1.0923
    SETDIJ:  cpu time    0.0159: real time    0.0159
     EDDAV:  cpu time  184.3640: real time  184.8037
 BZINTS: Fermi energy: -3.117010;248.000000 electrons
         Band energy:***********;  BLOECHL correction: -0.017809
       DOS:  cpu time    0.0262: real time    0.0262
    CHARGE:  cpu time    7.3561: real time    7.3738
    MIXING:  cpu time    0.0179: real time    0.0179
    --------------------------------------------
      LOOP:  cpu time  192.6544: real time  193.3299

 eigenvalue-minimisations  : 11436
 total energy-change (2. order) :-0.1578215E+02  (-0.4097132E+00)
 number of electron     247.9999993 magnetization      50.7287906
 augmentation part        5.9957316 magnetization      46.1637827

 Broyden mixing:
  rms(total) = 0.12537E+01    rms(broyden)= 0.12537E+01
  rms(prec ) = 0.12547E+01
  weight for this iteration     100.00

 eigenvalues of (default mixing * dielectric matrix)
  average eigenvalue GAMMA=   1.4647
  2.6946  1.6754  0.8422  0.6467

 Free energy of the ion-electron system (eV)
  ---------------------------------------------------
  alpha Z        PSCENC =        76.07398680
  Ewald energy   TEWEN  =    211456.34377278
  -Hartree energ DENC   =   -219025.65394366
  -exchange      EXHF   =         0.00000000
  -V(xc)+E(xc)   XCENC  =       924.02664706
  PAW double counting   =     26718.99434633   -26762.47715394
  entropy T*S    EENTRO =         0.00000000
  eigenvalues    EBANDS =     -2959.61968375
  atomic energy  EATOM  =      9123.59704331
  Solvation  Ediel_sol  =         0.00000000
  ---------------------------------------------------
  free energy    TOTEN  =      -448.71498505 eV

  energy without entropy =     -448.71498505  energy(sigma->0) =     -448.71498505


--------------------------------------------------------------------------------------------------------




--------------------------------------- Iteration      1(  10)  ---------------------------------------


    POTLOK:  cpu time    0.8489: real time    0.8570
    SETDIJ:  cpu time    0.0133: real time    0.0134
     EDDAV:  cpu time  180.5739: real time  181.0079
 BZINTS: Fermi energy: -2.854420;248.000000 electrons
         Band energy:***********;  BLOECHL correction: -0.003383
       DOS:  cpu time    0.0262: real time    0.0262
    CHARGE:  cpu time    7.3502: real time    7.3679
    MIXING:  cpu time    0.0183: real time    0.0184
    --------------------------------------------
      LOOP:  cpu time  188.8309: real time  189.2907

 eigenvalue-minimisations  : 11184
 total energy-change (2. order) :-0.3707735E+02  (-0.2062450E+01)
 number of electron     247.9999993 magnetization      47.0530913
 augmentation part        5.9699039 magnetization      42.9999130

 Broyden mixing:
  rms(total) = 0.10068E+01    rms(broyden)= 0.10068E+01
  rms(prec ) = 0.10073E+01
  weight for this iteration     100.00

 eigenvalues of (default mixing * dielectric matrix)
  average eigenvalue GAMMA=   1.5981
  3.3238  2.2870  0.9287  0.8423  0.6087

 Free energy of the ion-electron system (eV)
  ---------------------------------------------------
  alpha Z        PSCENC =        76.07398680
  Ewald energy   TEWEN  =    211456.34377278
  -Hartree energ DENC   =   -219106.35740749
  -exchange      EXHF   =         0.00000000
  -V(xc)+E(xc)   XCENC  =       903.28930685
  PAW double counting   =     27734.49035034   -27776.67127579
  entropy T*S    EENTRO =         0.00000000
  eigenvalues    EBANDS =     -2896.55811257
  atomic energy  EATOM  =      9123.59704331
  Solvation  Ediel_sol  =         0.00000000
  ---------------------------------------------------
  free energy    TOTEN  =      -485.79233577 eV

  energy without entropy =     -485.79233577  energy(sigma->0) =     -485.79233577


--------------------------------------------------------------------------------------------------------




--------------------------------------- Iteration      1(  11)  ---------------------------------------


    POTLOK:  cpu time    0.8431: real time    0.8508
    SETDIJ:  cpu time    0.0136: real time    0.0137
     EDDAV:  cpu time  182.6246: real time  183.0616
 BZINTS: Fermi energy: -2.500395;248.000000 electrons
         Band energy:***********;  BLOECHL correction:  0.000000
       DOS:  cpu time    0.0065: real time    0.0065
    CHARGE:  cpu time    7.5856: real time    7.6043
    MIXING:  cpu time    0.0200: real time    0.0201
    --------------------------------------------
      LOOP:  cpu time  191.0935: real time  191.5569

 eigenvalue-minimisations  : 11340
 total energy-change (2. order) :-0.2858086E+02  (-0.1705165E+01)
 number of electron     247.9999993 magnetization      42.1916664
 augmentation part        5.9386381 magnetization      38.2248187

 Broyden mixing:
  rms(total) = 0.82297E+00    rms(broyden)= 0.82297E+00
  rms(prec ) = 0.82340E+00
  weight for this iteration     100.00

 eigenvalues of (default mixing * dielectric matrix)
  average eigenvalue GAMMA=   1.7823
  4.4950  2.5304  1.3765  0.9489  0.7350  0.6079

 Free energy of the ion-electron system (eV)
  ---------------------------------------------------
  alpha Z        PSCENC =        76.07398680
  Ewald energy   TEWEN  =    211456.34377278
  -Hartree energ DENC   =   -219152.64496954
  -exchange      EXHF   =         0.00000000
  -V(xc)+E(xc)   XCENC  =       885.76663032
  PAW double counting   =     27359.68384635   -27401.32836213
  entropy T*S    EENTRO =         0.00000000
  eigenvalues    EBANDS =     -2861.86514614
  atomic energy  EATOM  =      9123.59704331
  Solvation  Ediel_sol  =         0.00000000
  ---------------------------------------------------
  free energy    TOTEN  =      -514.37319825 eV

  energy without entropy =     -514.37319825  energy(sigma->0) =     -514.37319825


--------------------------------------------------------------------------------------------------------




--------------------------------------- Iteration      1(  12)  ---------------------------------------


    POTLOK:  cpu time    0.8466: real time    0.8553
    SETDIJ:  cpu time    0.0139: real time    0.0139
     EDDAV:  cpu time  174.6608: real time  175.1883
 BZINTS: Fermi energy: -2.391616;248.000000 electrons
         Band energy:***********;  BLOECHL correction: -0.013707
       DOS:  cpu time    0.0281: real time    0.0281
    CHARGE:  cpu time    7.4195: real time    7.4421
    MIXING:  cpu time    0.0204: real time    0.0205
    --------------------------------------------
      LOOP:  cpu time  182.9892: real time  183.5481

 eigenvalue-minimisations  : 10680
 total energy-change (2. order) :-0.2600247E+02  (-0.2118532E+01)
 number of electron     247.9999993 magnetization      38.2264386
 augmentation part        5.9048075 magnetization      35.0522040

 Broyden mixing:
  rms(total) = 0.65833E+00    rms(broyden)= 0.65833E+00
  rms(prec ) = 0.65907E+00
  weight for this iteration     100.00

 eigenvalues of (default mixing * dielectric matrix)
  average eigenvalue GAMMA=   2.0196
  6.5276  2.5293  1.8813  0.9641  0.9263  0.7059  0.6030

 Free energy of the ion-electron system (eV)
  ---------------------------------------------------
  alpha Z        PSCENC =        76.07398680
  Ewald energy   TEWEN  =    211456.34377278
  -Hartree energ DENC   =   -219172.71347257
  -exchange      EXHF   =         0.00000000
  -V(xc)+E(xc)   XCENC  =       868.32778263
  PAW double counting   =     26046.07081031   -26087.82261007
  entropy T*S    EENTRO =         0.00000000
  eigenvalues    EBANDS =     -2850.25298383
  atomic energy  EATOM  =      9123.59704331
  Solvation  Ediel_sol  =         0.00000000
  ---------------------------------------------------
  free energy    TOTEN  =      -540.37567064 eV

  energy without entropy =     -540.37567064  energy(sigma->0) =     -540.37567064


--------------------------------------------------------------------------------------------------------




--------------------------------------- Iteration      1(  13)  ---------------------------------------


    POTLOK:  cpu time    0.8477: real time    0.8545
    SETDIJ:  cpu time    0.0138: real time    0.0138
     EDDAV:  cpu time  183.3124: real time  184.0456
 BZINTS: Fermi energy: -2.407003;248.000000 electrons
         Band energy:***********;  BLOECHL correction: -0.026112
       DOS:  cpu time    0.0296: real time    0.0297
    CHARGE:  cpu time    7.4139: real time    7.4334
    MIXING:  cpu time    0.0204: real time    0.0241
    --------------------------------------------
      LOOP:  cpu time  191.6376: real time  192.4011

 eigenvalue-minimisations  : 11340
 total energy-change (2. order) :-0.8825288E+01  (-0.7455385E+00)
 number of electron     247.9999993 magnetization      34.7617678
 augmentation part        5.8788717 magnetization      32.7970818

 Broyden mixing:
  rms(total) = 0.58622E+00    rms(broyden)= 0.58622E+00
  rms(prec ) = 0.58693E+00
  weight for this iteration     100.00

 eigenvalues of (default mixing * dielectric matrix)
  average eigenvalue GAMMA=   2.2125
  8.6047  2.3991  2.3991  1.0980  1.0980  0.7793  0.7159  0.6057

 Free energy of the ion-electron system (eV)
  ---------------------------------------------------
  alpha Z        PSCENC =        76.07398680
  Ewald energy   TEWEN  =    211456.34377278
  -Hartree energ DENC   =   -219174.44176890
  -exchange      EXHF   =         0.00000000
  -V(xc)+E(xc)   XCENC  =       862.39478559
  PAW double counting   =     25548.69489222   -25590.68274842
  entropy T*S    EENTRO =         0.00000000
  eigenvalues    EBANDS =     -2851.18092204
  atomic energy  EATOM  =      9123.59704331
  Solvation  Ediel_sol  =         0.00000000
  ---------------------------------------------------
  free energy    TOTEN  =      -549.20095865 eV

  energy without entropy =     -549.20095865  energy(sigma->0) =     -549.20095865


--------------------------------------------------------------------------------------------------------




--------------------------------------- Iteration      1(  14)  ---------------------------------------


    POTLOK:  cpu time    0.8284: real time    0.8359
    SETDIJ:  cpu time    0.0139: real time    0.0140
     EDDAV:  cpu time  178.2703: real time  178.9699
 BZINTS: Fermi energy: -2.461986;248.000000 electrons
         Band energy:***********;  BLOECHL correction: -0.013902
       DOS:  cpu time    0.0293: real time    0.0293
    CHARGE:  cpu time    7.4116: real time    7.4334
    MIXING:  cpu time    0.0221: real time    0.0221
    --------------------------------------------
      LOOP:  cpu time  186.5755: real time  187.3046

 eigenvalue-minimisations  : 10956
 total energy-change (2. order) :-0.3043925E+01  (-0.1393839E+00)
 number of electron     247.9999993 magnetization      31.0842584
 augmentation part        5.8727157 magnetization      30.1894659

 Broyden mixing:
  rms(total) = 0.54184E+00    rms(broyden)= 0.54184E+00
  rms(prec ) = 0.54238E+00
  weight for this iteration     100.00

 eigenvalues of (default mixing * dielectric matrix)
  average eigenvalue GAMMA=   2.3199
 10.2380  2.5568  2.5568  1.2926  1.2926  0.8741  0.7812  0.6099  0.6771

 Free energy of the ion-electron system (eV)
  ---------------------------------------------------
  alpha Z        PSCENC =        76.07398680
  Ewald energy   TEWEN  =    211456.34377278
  -Hartree energ DENC   =   -219159.32196326
  -exchange      EXHF   =         0.00000000
  -V(xc)+E(xc)   XCENC  =       859.56018420
  PAW double counting   =     25447.82063577   -25489.91233202
  entropy T*S    EENTRO =         0.00000000
  eigenvalues    EBANDS =     -2866.40621160
  atomic energy  EATOM  =      9123.59704331
  Solvation  Ediel_sol  =         0.00000000
  ---------------------------------------------------
  free energy    TOTEN  =      -552.24488402 eV

  energy without entropy =     -552.24488402  energy(sigma->0) =     -552.24488402


--------------------------------------------------------------------------------------------------------




--------------------------------------- Iteration      1(  15)  ---------------------------------------


    POTLOK:  cpu time    0.9334: real time    0.9438
    SETDIJ:  cpu time    0.0137: real time    0.0137
     EDDAV:  cpu time  181.2317: real time  181.9450
 BZINTS: Fermi energy: -2.575754;248.000000 electrons
         Band energy:***********;  BLOECHL correction:  0.000000
       DOS:  cpu time    0.0058: real time    0.0058
    CHARGE:  cpu time    7.4105: real time    7.4314
    MIXING:  cpu time    0.0232: real time    0.0233
    --------------------------------------------
      LOOP:  cpu time  189.6184: real time  190.3630

 eigenvalue-minimisations  : 11172
 total energy-change (2. order) :-0.1342326E+01  (-0.5482892E-01)
 number of electron     247.9999993 magnetization      26.2987106
 augmentation part        5.8700755 magnetization      26.2771069

 Broyden mixing:
  rms(total) = 0.49859E+00    rms(broyden)= 0.49859E+00
  rms(prec ) = 0.49898E+00
  weight for this iteration     100.00

 eigenvalues of (default mixing * dielectric matrix)
  average eigenvalue GAMMA=   2.4164
 11.7821  2.7468  2.7468  1.8001  1.1204  1.1204  0.8352  0.7485  0.6198  0.6436

 Free energy of the ion-electron system (eV)
  ---------------------------------------------------
  alpha Z        PSCENC =        76.07398680
  Ewald energy   TEWEN  =    211456.34377278
  -Hartree energ DENC   =   -219126.46395539
  -exchange      EXHF   =         0.00000000
  -V(xc)+E(xc)   XCENC  =       858.04903237
  PAW double counting   =     25464.28472623   -25506.39556395
  entropy T*S    EENTRO =         0.00000000
  eigenvalues    EBANDS =     -2899.07625189
  atomic energy  EATOM  =      9123.59704331
  Solvation  Ediel_sol  =         0.00000000
  ---------------------------------------------------
  free energy    TOTEN  =      -553.58720974 eV

  energy without entropy =     -553.58720974  energy(sigma->0) =     -553.58720974


--------------------------------------------------------------------------------------------------------




--------------------------------------- Iteration      1(  16)  ---------------------------------------


    POTLOK:  cpu time    0.8424: real time    0.8520
    SETDIJ:  cpu time    0.0134: real time    0.0134
     EDDAV:  cpu time  175.8226: real time  176.5187
 BZINTS: Fermi energy: -2.819033;248.000000 electrons
         Band energy:***********;  BLOECHL correction:  0.000000
       DOS:  cpu time    0.0051: real time    0.0051
    CHARGE:  cpu time    7.4161: real time    7.4365
    MIXING:  cpu time    0.0278: real time    0.0559
    --------------------------------------------
      LOOP:  cpu time  184.1274: real time  184.8816

 eigenvalue-minimisations  : 10764
 total energy-change (2. order) :-0.9077800E+00  (-0.4699631E-01)
 number of electron     247.9999993 magnetization      23.3371698
 augmentation part        5.8724755 magnetization      23.3195343

 Broyden mixing:
  rms(total) = 0.44821E+00    rms(broyden)= 0.44821E+00
  rms(prec ) = 0.44845E+00
  weight for this iteration     100.00

 eigenvalues of (default mixing * dielectric matrix)
  average eigenvalue GAMMA=   2.2755
 11.8313  2.6855  2.6855  1.6322  1.2877  1.2877  0.8139  0.8139  0.6173  0.7139
  0.6615

 Free energy of the ion-electron system (eV)
  ---------------------------------------------------
  alpha Z        PSCENC =        76.07398680
  Ewald energy   TEWEN  =    211456.34377278
  -Hartree energ DENC   =   -219070.47411613
  -exchange      EXHF   =         0.00000000
  -V(xc)+E(xc)   XCENC  =       856.79249982
  PAW double counting   =     25523.93455981   -25565.96705816
  entropy T*S    EENTRO =         0.00000000
  eigenvalues    EBANDS =     -2954.79567800
  atomic energy  EATOM  =      9123.59704331
  Solvation  Ediel_sol  =         0.00000000
  ---------------------------------------------------
  free energy    TOTEN  =      -554.49498977 eV

  energy without entropy =     -554.49498977  energy(sigma->0) =     -554.49498977


--------------------------------------------------------------------------------------------------------




--------------------------------------- Iteration      1(  17)  ---------------------------------------


    POTLOK:  cpu time    1.0355: real time    1.0491
    SETDIJ:  cpu time    0.0135: real time    0.0135
     EDDAV:  cpu time  183.5970: real time  184.3224
 BZINTS: Fermi energy: -3.049415;248.000000 electrons
         Band energy:***********;  BLOECHL correction:  0.000000
       DOS:  cpu time    0.0051: real time    0.0051
    CHARGE:  cpu time    7.4360: real time    7.4597
    MIXING:  cpu time    0.0281: real time    0.0282
    --------------------------------------------
      LOOP:  cpu time  192.1152: real time  192.8780

 eigenvalue-minimisations  : 11184
 total energy-change (2. order) :-0.3658834E+00  (-0.2355647E-01)
 number of electron     247.9999993 magnetization      14.4092224
 augmentation part        5.8700558 magnetization      14.3948731

 Broyden mixing:
  rms(total) = 0.38406E+00    rms(broyden)= 0.38406E+00
  rms(prec ) = 0.38422E+00
  weight for this iteration     100.00

 eigenvalues of (default mixing * dielectric matrix)
  average eigenvalue GAMMA=   2.4345
 12.8429  4.2106  2.4955  2.4955  1.2801  1.2801  1.0240  0.8797  0.6163  0.7151
  0.7151  0.6597

 Free energy of the ion-electron system (eV)
  ---------------------------------------------------
  alpha Z        PSCENC =        76.07398680
  Ewald energy   TEWEN  =    211456.34377278
  -Hartree energ DENC   =   -219014.41833697
  -exchange      EXHF   =         0.00000000
  -V(xc)+E(xc)   XCENC  =       856.44686244
  PAW double counting   =     25519.58931679   -25561.63390497
  entropy T*S    EENTRO =         0.00000000
  eigenvalues    EBANDS =     -3010.85961338
  atomic energy  EATOM  =      9123.59704331
  Solvation  Ediel_sol  =         0.00000000
  ---------------------------------------------------
  free energy    TOTEN  =      -554.86087318 eV

  energy without entropy =     -554.86087318  energy(sigma->0) =     -554.86087318


--------------------------------------------------------------------------------------------------------




--------------------------------------- Iteration      1(  18)  ---------------------------------------


    POTLOK:  cpu time    0.8489: real time    0.8590
    SETDIJ:  cpu time    0.0153: real time    0.0154
     EDDAV:  cpu time  177.7887: real time  178.4934
 BZINTS: Fermi energy: -3.499812;248.000000 electrons
         Band energy:***********;  BLOECHL correction:  0.000000
       DOS:  cpu time    0.0050: real time    0.0050
    CHARGE:  cpu time    7.3998: real time    7.4203
    MIXING:  cpu time    0.0294: real time    0.0295
    --------------------------------------------
      LOOP:  cpu time  186.0872: real time  186.8227

 eigenvalue-minimisations  : 10824
 total energy-change (2. order) : 0.1510040E+00  (-0.5211221E-01)
 number of electron     247.9999993 magnetization       7.4420568
 augmentation part        5.8734851 magnetization       7.4321090

 Broyden mixing:
  rms(total) = 0.27147E+00    rms(broyden)= 0.27147E+00
  rms(prec ) = 0.27258E+00
  weight for this iteration     100.00

 eigenvalues of (default mixing * dielectric matrix)
  average eigenvalue GAMMA=   2.8293
 15.7259  7.4062  2.5878  2.5878  1.6453  1.2213  1.2213  0.8585  0.8585  0.7112
  0.7112  0.6233  0.6233

 Free energy of the ion-electron system (eV)
  ---------------------------------------------------
  alpha Z        PSCENC =        76.07398680
  Ewald energy   TEWEN  =    211456.34377278
  -Hartree energ DENC   =   -218910.56883622
  -exchange      EXHF   =         0.00000000
  -V(xc)+E(xc)   XCENC  =       856.30468117
  PAW double counting   =     25639.84534200   -25681.80643322
  entropy T*S    EENTRO =         0.00000000
  eigenvalues    EBANDS =     -3114.49942576
  atomic energy  EATOM  =      9123.59704331
  Solvation  Ediel_sol  =         0.00000000
  ---------------------------------------------------
  free energy    TOTEN  =      -554.70986915 eV

  energy without entropy =     -554.70986915  energy(sigma->0) =     -554.70986915


--------------------------------------------------------------------------------------------------------




--------------------------------------- Iteration      1(  19)  ---------------------------------------


    POTLOK:  cpu time    0.8332: real time    0.8420
    SETDIJ:  cpu time    0.0133: real time    0.0133
     EDDAV:  cpu time  186.7949: real time  187.5219
 BZINTS: Fermi energy: -3.649940;248.000000 electrons
         Band energy:***********;  BLOECHL correction:  0.000000
       DOS:  cpu time    0.0051: real time    0.0051
    CHARGE:  cpu time    7.4258: real time    7.4458
    MIXING:  cpu time    0.0254: real time    0.0254
    --------------------------------------------
      LOOP:  cpu time  195.0977: real time  195.8536

 eigenvalue-minimisations  : 11640
 total energy-change (2. order) :-0.3089449E+01  (-0.3841320E-01)
 number of electron     247.9999993 magnetization       4.1050023
 augmentation part        5.8747324 magnetization       4.1015381

 Broyden mixing:
  rms(total) = 0.18626E+00    rms(broyden)= 0.18626E+00
  rms(prec ) = 0.18853E+00
  weight for this iteration     100.00

 eigenvalues of (default mixing * dielectric matrix)
  average eigenvalue GAMMA=   3.1133
 19.5990  8.9873  2.6418  2.6418  1.9375  1.2191  1.2191  0.9512  0.9512  0.8225
  0.6931  0.6931  0.6091  0.6211

 Free energy of the ion-electron system (eV)
  ---------------------------------------------------
  alpha Z        PSCENC =        76.07398680
  Ewald energy   TEWEN  =    211456.34377278
  -Hartree energ DENC   =   -218863.19873910
  -exchange      EXHF   =         0.00000000
  -V(xc)+E(xc)   XCENC  =       853.25971496
  PAW double counting   =     25685.51727802   -25727.50656640
  entropy T*S    EENTRO =         0.00000000
  eigenvalues    EBANDS =     -3161.88580806
  atomic energy  EATOM  =      9123.59704331
  Solvation  Ediel_sol  =         0.00000000
  ---------------------------------------------------
  free energy    TOTEN  =      -557.79931768 eV

  energy without entropy =     -557.79931768  energy(sigma->0) =     -557.79931768


--------------------------------------------------------------------------------------------------------




--------------------------------------- Iteration      1(  20)  ---------------------------------------


    POTLOK:  cpu time    0.8487: real time    0.8587
    SETDIJ:  cpu time    0.0130: real time    0.0150
     EDDAV:  cpu time  173.3576: real time  173.8783
 BZINTS: Fermi energy: -3.611880;248.000000 electrons
         Band energy:***********;  BLOECHL correction:  0.000000
       DOS:  cpu time    0.0057: real time    0.0057
    CHARGE:  cpu time    7.2653: real time    7.2843
    MIXING:  cpu time    0.0261: real time    0.0261
    --------------------------------------------
      LOOP:  cpu time  181.5164: real time  182.0681

 eigenvalue-minimisations  : 10596
 total energy-change (2. order) : 0.3729487E+00  (-0.3091443E-01)
 number of electron     247.9999993 magnetization       1.9198068
 augmentation part        5.8723086 magnetization       1.9169233

 Broyden mixing:
  rms(total) = 0.14208E+00    rms(broyden)= 0.14208E+00
  rms(prec ) = 0.14654E+00
  weight for this iteration     100.00

 eigenvalues of (default mixing * dielectric matrix)
  average eigenvalue GAMMA=   3.4798
 25.5310  9.9858  2.6666  2.6666  2.5184  1.3126  1.3126  1.2381  0.8675  0.8675
  0.7033  0.7033  0.6159  0.6159  0.5922

 Free energy of the ion-electron system (eV)
  ---------------------------------------------------
  alpha Z        PSCENC =        76.07398680
  Ewald energy   TEWEN  =    211456.34377278
  -Hartree energ DENC   =   -218866.54283938
  -exchange      EXHF   =         0.00000000
  -V(xc)+E(xc)   XCENC  =       853.89384543
  PAW double counting   =     25730.48259974   -25772.52270776
  entropy T*S    EENTRO =         0.00000000
  eigenvalues    EBANDS =     -3158.75206989
  atomic energy  EATOM  =      9123.59704331
  Solvation  Ediel_sol  =         0.00000000
  ---------------------------------------------------
  free energy    TOTEN  =      -557.42636896 eV

  energy without entropy =     -557.42636896  energy(sigma->0) =     -557.42636896


--------------------------------------------------------------------------------------------------------




--------------------------------------- Iteration      1(  21)  ---------------------------------------


    POTLOK:  cpu time    0.8270: real time    0.8372
    SETDIJ:  cpu time    0.0135: real time    0.0135
     EDDAV:  cpu time  173.0127: real time  173.4868
 BZINTS: Fermi energy: -3.573583;248.000000 electrons
         Band energy:***********;  BLOECHL correction:  0.000000
       DOS:  cpu time    0.0050: real time    0.0050
    CHARGE:  cpu time    7.2349: real time    7.2538
    MIXING:  cpu time    0.0283: real time    0.0284
    --------------------------------------------
      LOOP:  cpu time  181.1214: real time  181.6247

 eigenvalue-minimisations  : 10776
 total energy-change (2. order) : 0.7382597E-01  (-0.3312615E-01)
 number of electron     247.9999993 magnetization       0.5932350
 augmentation part        5.8704431 magnetization       0.5912436

 Broyden mixing:
  rms(total) = 0.84771E-01    rms(broyden)= 0.84771E-01
  rms(prec ) = 0.88146E-01
  weight for this iteration     100.00

 eigenvalues of (default mixing * dielectric matrix)
  average eigenvalue GAMMA=   3.8718
 33.0249 10.6300  3.6396  2.5229  2.5229  1.5161  1.2453  1.2453  0.8991  0.8991
  0.7596  0.7029  0.6076  0.6528  0.6528  0.4274

 Free energy of the ion-electron system (eV)
  ---------------------------------------------------
  alpha Z        PSCENC =        76.07398680
  Ewald energy   TEWEN  =    211456.34377278
  -Hartree energ DENC   =   -218883.07276795
  -exchange      EXHF   =         0.00000000
  -V(xc)+E(xc)   XCENC  =       854.12152266
  PAW double counting   =     25726.85354555   -25768.91130817
  entropy T*S    EENTRO =         0.00000000
  eigenvalues    EBANDS =     -3142.35833798
  atomic energy  EATOM  =      9123.59704331
  Solvation  Ediel_sol  =         0.00000000
  ---------------------------------------------------
  free energy    TOTEN  =      -557.35254299 eV

  energy without entropy =     -557.35254299  energy(sigma->0) =     -557.35254299


--------------------------------------------------------------------------------------------------------




--------------------------------------- Iteration      1(  22)  ---------------------------------------


    POTLOK:  cpu time    0.8305: real time    0.8408
    SETDIJ:  cpu time    0.0136: real time    0.0136
     EDDAV:  cpu time  172.6136: real time  173.0907
 BZINTS: Fermi energy: -3.524088;248.000000 electrons
         Band energy:***********;  BLOECHL correction:  0.000000
       DOS:  cpu time    0.0051: real time    0.0051
    CHARGE:  cpu time    7.2387: real time    7.2576
    MIXING:  cpu time    0.0299: real time    0.0300
    --------------------------------------------
      LOOP:  cpu time  180.7315: real time  181.2379

 eigenvalue-minimisations  : 10692
 total energy-change (2. order) :-0.3434680E+00  (-0.9437968E-02)
 number of electron     247.9999993 magnetization       0.1824112
 augmentation part        5.8700075 magnetization       0.1814805

 Broyden mixing:
  rms(total) = 0.43505E-01    rms(broyden)= 0.43505E-01
  rms(prec ) = 0.45361E-01
  weight for this iteration     100.00

 eigenvalues of (default mixing * dielectric matrix)
  average eigenvalue GAMMA=   4.0207
 37.2659 10.9493  4.0843  2.5275  2.5275  1.8110  1.2653  1.2653  1.1520  0.8848
  0.8848  0.7208  0.6799  0.6799  0.6120  0.6364  0.4060

 Free energy of the ion-electron system (eV)
  ---------------------------------------------------
  alpha Z        PSCENC =        76.07398680
  Ewald energy   TEWEN  =    211456.34377278
  -Hartree energ DENC   =   -218903.75311479
  -exchange      EXHF   =         0.00000000
  -V(xc)+E(xc)   XCENC  =       853.82287073
  PAW double counting   =     25684.76081704   -25726.80261281
  entropy T*S    EENTRO =         0.00000000
  eigenvalues    EBANDS =     -3121.73877408
  atomic energy  EATOM  =      9123.59704331
  Solvation  Ediel_sol  =         0.00000000
  ---------------------------------------------------
  free energy    TOTEN  =      -557.69601102 eV

  energy without entropy =     -557.69601102  energy(sigma->0) =     -557.69601102


--------------------------------------------------------------------------------------------------------




--------------------------------------- Iteration      1(  23)  ---------------------------------------


    POTLOK:  cpu time    0.8240: real time    0.8347
    SETDIJ:  cpu time    0.0137: real time    0.0137
     EDDAV:  cpu time  178.4973: real time  178.9731
 BZINTS: Fermi energy: -3.455041;248.000000 electrons
         Band energy:***********;  BLOECHL correction:  0.000000
       DOS:  cpu time    0.0052: real time    0.0052
    CHARGE:  cpu time    7.2484: real time    7.2673
    MIXING:  cpu time    0.0310: real time    0.0311
    --------------------------------------------
      LOOP:  cpu time  186.6196: real time  187.1251

 eigenvalue-minimisations  : 11208
 total energy-change (2. order) :-0.2961890E+00  (-0.1806032E-02)
 number of electron     247.9999993 magnetization       0.0752559
 augmentation part        5.8694250 magnetization       0.0748115

 Broyden mixing:
  rms(total) = 0.21615E-01    rms(broyden)= 0.21614E-01
  rms(prec ) = 0.23128E-01
  weight for this iteration     100.00

 eigenvalues of (default mixing * dielectric matrix)
  average eigenvalue GAMMA=   4.1064
 40.3878 11.2099  4.5990  2.5859  2.5859  2.3195  1.3871  1.2547  1.2547  0.9045
  0.9045  0.8461  0.7053  0.6670  0.6670  0.6158  0.6158  0.4042

 Free energy of the ion-electron system (eV)
  ---------------------------------------------------
  alpha Z        PSCENC =        76.07398680
  Ewald energy   TEWEN  =    211456.34377278
  -Hartree energ DENC   =   -218923.48262135
  -exchange      EXHF   =         0.00000000
  -V(xc)+E(xc)   XCENC  =       853.56905681
  PAW double counting   =     25638.39115296   -25680.41315647
  entropy T*S    EENTRO =         0.00000000
  eigenvalues    EBANDS =     -3102.07143491
  atomic energy  EATOM  =      9123.59704331
  Solvation  Ediel_sol  =         0.00000000
  ---------------------------------------------------
  free energy    TOTEN  =      -557.99220007 eV

  energy without entropy =     -557.99220007  energy(sigma->0) =     -557.99220007


--------------------------------------------------------------------------------------------------------




--------------------------------------- Iteration      1(  24)  ---------------------------------------


    POTLOK:  cpu time    0.8337: real time    0.8453
    SETDIJ:  cpu time    0.0134: real time    0.0135
     EDDAV:  cpu time  175.0145: real time  175.4928
 BZINTS: Fermi energy: -3.395117;248.000000 electrons
         Band energy:***********;  BLOECHL correction:  0.000000
       DOS:  cpu time    0.0051: real time    0.0051
    CHARGE:  cpu time    7.2347: real time    7.2536
    MIXING:  cpu time    0.0320: real time    0.0321
    --------------------------------------------
      LOOP:  cpu time  183.1334: real time  183.6423

 eigenvalue-minimisations  : 10896
 total energy-change (2. order) :-0.9966687E-01  (-0.5068040E-03)
 number of electron     247.9999993 magnetization       0.0351767
 augmentation part        5.8684314 magnetization       0.0349632

 Broyden mixing:
  rms(total) = 0.10436E-01    rms(broyden)= 0.10436E-01
  rms(prec ) = 0.11906E-01
  weight for this iteration     100.00

 eigenvalues of (default mixing * dielectric matrix)
  average eigenvalue GAMMA=   3.9903
 40.9503 11.2498  4.7592  2.5678  2.5678  2.5224  1.4890  1.2342  1.2342  0.9574
  0.9574  0.8210  0.8210  0.6996  0.6996  0.6426  0.6317  0.6052  0.4050

 Free energy of the ion-electron system (eV)
  ---------------------------------------------------
  alpha Z        PSCENC =        76.07398680
  Ewald energy   TEWEN  =    211456.34377278
  -Hartree energ DENC   =   -218937.36004823
  -exchange      EXHF   =         0.00000000
  -V(xc)+E(xc)   XCENC  =       853.51399195
  PAW double counting   =     25613.23491919   -25655.25462540
  entropy T*S    EENTRO =         0.00000000
  eigenvalues    EBANDS =     -3088.24090734
  atomic energy  EATOM  =      9123.59704331
  Solvation  Ediel_sol  =         0.00000000
  ---------------------------------------------------
  free energy    TOTEN  =      -558.09186694 eV

  energy without entropy =     -558.09186694  energy(sigma->0) =     -558.09186694


--------------------------------------------------------------------------------------------------------




--------------------------------------- Iteration      1(  25)  ---------------------------------------


    POTLOK:  cpu time    0.8249: real time    0.8360
    SETDIJ:  cpu time    0.0134: real time    0.0134
     EDDAV:  cpu time  170.4067: real time  170.8724
 BZINTS: Fermi energy: -3.341483;248.000000 electrons
         Band energy:***********;  BLOECHL correction:  0.000000
       DOS:  cpu time    0.0049: real time    0.0049
    CHARGE:  cpu time    7.2180: real time    7.2369
    MIXING:  cpu time    0.0334: real time    0.0335
    --------------------------------------------
      LOOP:  cpu time  178.5013: real time  178.9972

 eigenvalue-minimisations  : 10512
 total energy-change (2. order) :-0.5219964E-01  (-0.1417117E-03)
 number of electron     247.9999993 magnetization       0.0057840
 augmentation part        5.8681504 magnetization       0.0057961

 Broyden mixing:
  rms(total) = 0.68688E-02    rms(broyden)= 0.68688E-02
  rms(prec ) = 0.81235E-02
  weight for this iteration     100.00

 eigenvalues of (default mixing * dielectric matrix)
  average eigenvalue GAMMA=   3.8852
 41.1747 11.2666  4.8908  2.6958  2.5785  2.5785  1.6825  1.2643  1.2643  1.1640
  1.0506  0.8658  0.8658  0.7169  0.6911  0.6911  0.6320  0.6239  0.6023  0.4049

 Free energy of the ion-electron system (eV)
  ---------------------------------------------------
  alpha Z        PSCENC =        76.07398680
  Ewald energy   TEWEN  =    211456.34377278
  -Hartree energ DENC   =   -218944.73283537
  -exchange      EXHF   =         0.00000000
  -V(xc)+E(xc)   XCENC  =       853.46706780
  PAW double counting   =     25608.24383501   -25650.25908487
  entropy T*S    EENTRO =         0.00000000
  eigenvalues    EBANDS =     -3080.87785203
  atomic energy  EATOM  =      9123.59704331
  Solvation  Ediel_sol  =         0.00000000
  ---------------------------------------------------
  free energy    TOTEN  =      -558.14406657 eV

  energy without entropy =     -558.14406657  energy(sigma->0) =     -558.14406657


--------------------------------------------------------------------------------------------------------




--------------------------------------- Iteration      1(  26)  ---------------------------------------


    POTLOK:  cpu time    0.8269: real time    0.8387
    SETDIJ:  cpu time    0.0137: real time    0.0137
     EDDAV:  cpu time  171.2465: real time  171.7027
 BZINTS: Fermi energy: -3.319622;248.000000 electrons
         Band energy:***********;  BLOECHL correction:  0.000000
       DOS:  cpu time    0.0057: real time    0.0057
    CHARGE:  cpu time    7.2393: real time    7.2585
    MIXING:  cpu time    0.0333: real time    0.0469
    --------------------------------------------
      LOOP:  cpu time  179.3654: real time  179.8663

 eigenvalue-minimisations  : 10644
 total energy-change (2. order) :-0.8463336E-02  (-0.1323471E-03)
 number of electron     247.9999993 magnetization      -0.0016652
 augmentation part        5.8678896 magnetization      -0.0016522

 Broyden mixing:
  rms(total) = 0.52327E-02    rms(broyden)= 0.52326E-02
  rms(prec ) = 0.61218E-02
  weight for this iteration     100.00

 eigenvalues of (default mixing * dielectric matrix)
  average eigenvalue GAMMA=   3.7229
 41.1828 11.2663  4.9000  2.7038  2.5783  2.5783  1.6932  1.2671  1.2671  1.1961
  1.0289  0.8677  0.8677  0.7194  0.6902  0.6902  0.6265  0.6265  0.5989  0.4038
  0.4289

 Free energy of the ion-electron system (eV)
  ---------------------------------------------------
  alpha Z        PSCENC =        76.07398680
  Ewald energy   TEWEN  =    211456.34377278
  -Hartree energ DENC   =   -218951.74439847
  -exchange      EXHF   =         0.00000000
  -V(xc)+E(xc)   XCENC  =       853.47296561
  PAW double counting   =     25609.94607635   -25651.96030383
  entropy T*S    EENTRO =         0.00000000
  eigenvalues    EBANDS =     -3073.88167247
  atomic energy  EATOM  =      9123.59704331
  Solvation  Ediel_sol  =         0.00000000
  ---------------------------------------------------
  free energy    TOTEN  =      -558.15252991 eV

  energy without entropy =     -558.15252991  energy(sigma->0) =     -558.15252991


--------------------------------------------------------------------------------------------------------




--------------------------------------- Iteration      1(  27)  ---------------------------------------


    POTLOK:  cpu time    0.8339: real time    0.8439
    SETDIJ:  cpu time    0.0134: real time    0.0134
     EDDAV:  cpu time  171.1858: real time  171.6381
 BZINTS: Fermi energy: -3.311334;248.000000 electrons
[...]
   C          34.203          3.410         10.281          0.857
   C          33.894          3.405         10.234          0.853
   C          34.203          3.410         10.281          0.857
   C          34.828          3.420         10.374          0.865
   C          35.630          3.433         10.493          0.874
   C          34.828          3.420         10.374          0.865
   C          35.630          3.433         10.493          0.874
   C          35.630          3.433         10.493          0.874
   C          35.630          3.433         10.493          0.874
   C          34.828          3.420         10.374          0.865
   C          34.203          3.410         10.281          0.857
   C          34.828          3.420         10.374          0.865
   C          34.203          3.410         10.281          0.857
   C          34.060          3.408         10.259          0.855
   C          34.203          3.410         10.281          0.857
   C          34.060          3.408         10.259          0.855
   C          34.203          3.410         10.281          0.857
   C          34.826          3.420         10.374          0.864
   C          34.731          3.419         10.360          0.863
   C          34.826          3.420         10.374          0.864
   C          34.731          3.419         10.360          0.863
   C          34.826          3.420         10.374          0.864
   C          34.203          3.410         10.281          0.857
   C          34.826          3.420         10.374          0.864
   C          34.203          3.410         10.281          0.857
   C          34.060          3.408         10.259          0.855
   C          33.823          3.404         10.223          0.852
   C          34.060          3.408         10.259          0.855
   C          33.823          3.404         10.223          0.852

  IVDW = 202
  VDW_RADIUS =    50.000 A
  VDW_SR =     0.830
  VDW_D =     6.000
  SCSRAD =   120.000 A
  LSCSGRAD = T
  LSCALER0 = T
  Edisp (eV):   -7.02828
    FORVDW:  cpu time   97.8271: real time   98.1577

  FORCE on cell =-STRESS in cart. coord.  units (eV):
  Direction    XX          YY          ZZ          XY          YZ          ZX
  --------------------------------------------------------------------------------------
  Alpha Z    76.07399    76.07399    76.07399
  Ewald  218764.89797218765.43136************     0.55645     0.45230    -0.03531
  Hartree218076.65843218076.82223************     0.34365     0.44379    -0.02754
  E(xc)    -922.77482  -922.77342  -948.58134     0.00141     0.00001    -0.00005
  Local  ************************440159.79088    -0.90211    -0.89564     0.06235
  n-local  -212.65598  -212.65562  -203.77079     0.00542    -0.00005     0.00004
  augment   -23.69410   -23.69462   -22.05582     0.00019    -0.00000    -0.00000
  Kinetic  3756.82209  3756.77712  4195.89737    -0.06057     0.00012     0.00095
  Fock        0.00000     0.00000     0.00000     0.00000     0.00000     0.00000
  vdW        -7.50876    -7.50867    -4.12487    -0.00011    -0.00000    -0.00000
  -------------------------------------------------------------------------------------
  Total      -0.13714    -0.11665    -0.37967    -0.05565     0.00054     0.00044
  in kB      -0.05293    -0.04503    -0.14655    -0.02148     0.00021     0.00017
  external pressure =       -0.08 kB  Pullay stress =        0.00 kB


 VOLUME and BASIS-vectors are now :
 -----------------------------------------------------------------------------
  energy-cutoff  :      850.00
  volume of cell :     4150.85
      direct lattice vectors                 reciprocal lattice vectors
     9.795472477 -0.003335275 -0.000000532     0.102067896 -0.058984534  0.000000066
     4.901452904  8.481562067  0.000008392     0.000040137  0.117879615 -0.000000121
    -0.000002667  0.000051244 49.951752334     0.000000001 -0.000000020  0.020019318

  length of vectors
     9.795473045  9.795975483 49.951752334     0.117885668  0.117879622  0.020019318


 FORCES acting on ions
    electron-ion (+dipol)            ewald-force                    non-local-force                 convergence-correction
 -----------------------------------------------------------------------------------------------
   0.238E+00 0.159E+00 -.547E+03   -.142E+00 -.106E+00 0.547E+03   -.921E-01 -.536E-01 -.379E+00   0.203E-06 0.110E-06 -.100E-06
   -.193E+01 -.115E+01 -.515E+03   0.201E+01 0.119E+01 0.514E+03   -.721E-01 -.420E-01 0.574E+00   0.410E-07 -.158E-07 -.502E-07
   0.223E+00 0.149E+00 0.547E+03   -.127E+00 -.949E-01 -.547E+03   -.919E-01 -.536E-01 0.378E+00   -.196E-06 -.999E-07 0.313E-06
   -.193E+01 -.115E+01 0.515E+03   0.200E+01 0.119E+01 -.514E+03   -.729E-01 -.422E-01 -.575E+00   -.254E-06 -.165E-06 0.302E-06
   0.112E+02 -.646E+01 -.513E+03   -.113E+02 0.650E+01 0.514E+03   0.579E-01 -.317E-01 -.478E+00   0.153E-06 -.867E-07 -.150E-06
   0.464E-01 0.231E+01 -.515E+03   -.493E-01 -.240E+01 0.514E+03   0.866E-03 0.802E-01 0.575E+00   0.375E-07 -.244E-07 -.497E-07
   0.112E+02 -.645E+01 0.513E+03   -.112E+02 0.649E+01 -.514E+03   0.587E-01 -.326E-01 0.478E+00   -.578E-07 0.338E-07 0.365E-06
   0.464E-01 0.230E+01 0.515E+03   -.491E-01 -.239E+01 -.514E+03   0.784E-03 0.815E-01 -.576E+00   0.154E-07 0.304E-06 0.302E-06
   -.270E-01 -.328E+00 -.546E+03   0.277E-01 0.228E+00 0.547E+03   -.744E-04 0.112E+00 -.378E+00   0.909E-09 -.235E-06 -.994E-07
   -.141E+02 0.791E+01 -.536E+03   0.141E+02 -.765E+01 0.537E+03   0.176E-02 -.266E+00 -.519E+00   -.337E-06 -.164E-06 -.169E-06
   -.272E-01 -.305E+00 0.546E+03   0.282E-01 0.203E+00 -.547E+03   0.124E-03 0.111E+00 0.377E+00   -.142E-07 0.215E-06 0.314E-06
   -.141E+02 0.791E+01 0.536E+03   0.141E+02 -.765E+01 -.537E+03   0.280E-02 -.266E+00 0.519E+00   -.316E-07 0.359E-06 0.414E-06
   -.517E+01 0.295E+01 -.532E+03   0.500E+01 -.285E+01 0.532E+03   0.161E+00 -.919E-01 0.537E+00   -.174E-06 0.106E-06 -.252E-06
   -.139E+02 0.832E+01 -.536E+03   0.137E+02 -.844E+01 0.537E+03   0.228E+00 0.128E+00 -.519E+00   -.204E-07 0.366E-06 -.174E-06
   -.517E+01 0.295E+01 0.532E+03   0.500E+01 -.285E+01 -.532E+03   0.160E+00 -.919E-01 -.537E+00   0.858E-07 -.439E-07 0.460E-06
   -.139E+02 0.832E+01 0.536E+03   0.137E+02 -.844E+01 -.537E+03   0.229E+00 0.127E+00 0.519E+00   -.321E-06 -.156E-06 0.417E-06
   0.210E-01 0.129E+02 -.513E+03   -.185E-01 -.130E+02 0.513E+03   0.270E-02 0.639E-01 -.477E+00   0.678E-08 0.157E-06 -.132E-06
   0.203E+01 -.115E+01 -.515E+03   -.211E+01 0.119E+01 0.514E+03   0.707E-01 -.406E-01 0.576E+00   -.182E-07 0.139E-07 -.396E-07
   0.252E-01 0.129E+02 0.513E+03   -.233E-01 -.130E+02 -.513E+03   0.223E-02 0.648E-01 0.477E+00   0.129E-08 -.633E-07 0.346E-06
   0.202E+01 -.114E+01 0.515E+03   -.210E+01 0.119E+01 -.514E+03   0.723E-01 -.414E-01 -.577E+00   0.251E-06 -.146E-06 0.292E-06
   -.112E+02 -.646E+01 -.513E+03   0.112E+02 0.650E+01 0.513E+03   -.531E-01 -.315E-01 -.477E+00   -.135E-06 -.836E-07 -.129E-06
   -.266E+02 -.154E+02 -.440E+03   0.265E+02 0.153E+02 0.440E+03   0.112E+00 0.639E-01 0.833E+00   -.355E-06 -.265E-06 -.281E-06
   -.111E+02 -.645E+01 0.513E+03   0.112E+02 0.649E+01 -.513E+03   -.541E-01 -.318E-01 0.477E+00   0.520E-07 0.293E-07 0.344E-06
   -.266E+02 -.154E+02 0.440E+03   0.265E+02 0.153E+02 -.440E+03   0.113E+00 0.642E-01 -.832E+00   0.925E-07 -.102E-07 0.358E-06
   -.531E+02 0.110E+02 -.441E+03   0.533E+02 -.115E+02 0.441E+03   -.233E+00 0.529E+00 -.311E+00   -.212E-06 -.135E-06 -.309E-06
   -.794E+02 0.459E+02 -.240E+03   0.805E+02 -.465E+02 0.240E+03   -.103E+01 0.597E+00 -.202E+00   0.502E-07 -.177E-07 -.761E-06
   -.531E+02 0.110E+02 0.441E+03   0.533E+02 -.115E+02 -.441E+03   -.234E+00 0.528E+00 0.311E+00   -.674E-07 0.334E-06 0.245E-06
   -.794E+02 0.459E+02 0.240E+03   0.805E+02 -.465E+02 -.240E+03   -.103E+01 0.597E+00 0.202E+00   -.223E-06 0.139E-06 -.263E-06
   -.360E+02 0.405E+02 -.441E+03   0.366E+02 -.404E+02 0.441E+03   -.573E+00 -.599E-01 -.310E+00   0.986E-08 0.253E-06 -.311E-06
   0.754E-01 0.308E+02 -.440E+03   -.762E-01 -.306E+02 0.440E+03   0.500E-03 -.129E+00 0.832E+00   0.628E-07 0.421E-06 -.288E-06
   -.360E+02 0.405E+02 0.441E+03   0.366E+02 -.404E+02 -.441E+03   -.574E+00 -.591E-01 0.310E+00   -.322E-06 -.106E-06 0.247E-06
   0.735E-01 0.308E+02 0.440E+03   -.739E-01 -.306E+02 -.440E+03   0.709E-03 -.130E+00 -.831E+00   0.680E-07 -.902E-07 0.364E-06
   -.271E+00 0.146E+00 -.546E+03   0.182E+00 -.950E-01 0.547E+03   0.955E-01 -.556E-01 -.377E+00   -.220E-06 0.126E-06 -.857E-07
   -.267E+00 -.162E+02 -.536E+03   0.486E+00 0.160E+02 0.536E+03   -.228E+00 0.136E+00 -.518E+00   -.309E-06 -.164E-06 -.186E-06
   -.246E+00 0.132E+00 0.546E+03   0.154E+00 -.796E-01 -.547E+03   0.944E-01 -.550E-01 0.377E+00   0.170E-06 -.107E-06 0.300E-06
   -.267E+00 -.162E+02 0.536E+03   0.486E+00 0.160E+02 -.537E+03   -.227E+00 0.136E+00 0.518E+00   0.305E-06 -.138E-06 0.433E-06
   -.170E+02 -.515E+02 -.441E+03   0.167E+02 0.519E+02 0.441E+03   0.341E+00 -.465E+00 -.312E+00   -.183E-06 -.993E-07 -.350E-06
   -.121E+00 -.917E+02 -.240E+03   0.122E+00 0.930E+02 0.240E+03   -.138E-02 -.119E+01 -.201E+00   0.312E-07 0.505E-08 -.802E-06
   -.170E+02 -.515E+02 0.441E+03   0.167E+02 0.519E+02 -.441E+03   0.340E+00 -.465E+00 0.312E+00   0.306E-06 -.205E-06 0.280E-06
   -.124E+00 -.917E+02 0.240E+03   0.125E+00 0.930E+02 -.240E+03   -.113E-02 -.119E+01 0.201E+00   0.451E-07 -.313E-06 -.247E-06
   0.795E+02 0.459E+02 -.240E+03   -.805E+02 -.465E+02 0.240E+03   0.103E+01 0.597E+00 -.202E+00   0.159E-07 -.155E-07 -.809E-06
   0.795E+02 0.459E+02 0.240E+03   -.805E+02 -.465E+02 -.240E+03   0.103E+01 0.597E+00 0.202E+00   0.298E-06 0.131E-06 -.239E-06
   0.361E+02 0.405E+02 -.441E+03   -.367E+02 -.404E+02 0.441E+03   0.573E+00 -.630E-01 -.313E+00   -.437E-08 0.192E-06 -.363E-06
   0.138E+02 0.831E+01 -.536E+03   -.136E+02 -.843E+01 0.536E+03   -.230E+00 0.130E+00 -.518E+00   -.253E-07 0.336E-06 -.195E-06
   0.361E+02 0.404E+02 0.441E+03   -.367E+02 -.404E+02 -.441E+03   0.573E+00 -.621E-01 0.313E+00   0.334E-06 -.172E-06 0.291E-06
   0.139E+02 0.831E+01 0.536E+03   -.136E+02 -.844E+01 -.536E+03   -.230E+00 0.129E+00 0.518E+00   0.251E-06 -.204E-06 0.443E-06
   -.449E-01 -.592E+01 -.532E+03   0.483E-01 0.572E+01 0.532E+03   0.197E-03 0.187E+00 0.539E+00   0.864E-08 -.202E-06 -.259E-06
   0.238E+00 -.162E+02 -.536E+03   -.461E+00 0.161E+02 0.537E+03   0.225E+00 0.135E+00 -.520E+00   0.289E-06 -.145E-06 -.214E-06
   -.406E-01 -.591E+01 0.532E+03   0.431E-01 0.572E+01 -.532E+03   -.231E-03 0.186E+00 -.539E+00   0.225E-07 0.110E-06 0.470E-06
   0.228E+00 -.162E+02 0.536E+03   -.450E+00 0.161E+02 -.537E+03   0.225E+00 0.136E+00 0.520E+00   -.299E-06 -.110E-06 0.463E-06
   0.170E+02 -.515E+02 -.441E+03   -.166E+02 0.519E+02 0.441E+03   -.340E+00 -.465E+00 -.313E+00   0.167E-06 -.109E-06 -.378E-06
   0.267E+02 -.154E+02 -.441E+03   -.266E+02 0.153E+02 0.440E+03   -.109E+00 0.630E-01 0.830E+00   0.306E-06 -.164E-06 -.332E-06
   0.170E+02 -.515E+02 0.441E+03   -.166E+02 0.519E+02 -.441E+03   -.340E+00 -.466E+00 0.312E+00   -.299E-06 -.213E-06 0.297E-06
   0.267E+02 -.154E+02 0.441E+03   -.266E+02 0.153E+02 -.440E+03   -.110E+00 0.637E-01 -.830E+00   -.142E-06 0.958E-07 0.397E-06
   0.531E+02 0.110E+02 -.441E+03   -.533E+02 -.115E+02 0.441E+03   0.232E+00 0.529E+00 -.314E+00   0.168E-06 -.788E-07 -.388E-06
   0.141E+02 0.789E+01 -.536E+03   -.141E+02 -.763E+01 0.537E+03   -.295E-02 -.265E+00 -.519E+00   0.261E-06 -.181E-06 -.220E-06
   0.531E+02 0.110E+02 0.441E+03   -.533E+02 -.115E+02 -.441E+03   0.233E+00 0.528E+00 0.314E+00   0.233E-07 0.374E-06 0.307E-06
   0.142E+02 0.789E+01 0.536E+03   -.141E+02 -.763E+01 -.537E+03   -.410E-02 -.265E+00 0.519E+00   -.655E-07 0.304E-06 0.470E-06
   0.513E+01 0.297E+01 -.532E+03   -.497E+01 -.287E+01 0.531E+03   -.167E+00 -.950E-01 0.540E+00   0.175E-06 0.908E-07 -.261E-06
   -.406E-01 -.119E-01 -.542E+03   0.437E-01 0.143E-01 0.542E+03   -.600E-03 0.670E-03 -.209E+00   -.110E-07 0.356E-08 -.208E-06
   0.513E+01 0.297E+01 0.532E+03   -.497E+01 -.287E+01 -.531E+03   -.166E+00 -.949E-01 -.540E+00   -.931E-07 -.692E-07 0.474E-06
   -.424E-01 -.170E-01 0.542E+03   0.458E-01 0.202E-01 -.542E+03   -.267E-03 0.122E-02 0.209E+00   0.867E-08 0.192E-09 0.527E-06
 -----------------------------------------------------------------------------------------------
   -.340E-02 -.272E-03 0.975E-03   -.330E-12 -.234E-13 -.341E-12   0.311E-02 0.381E-04 -.128E-02   -.736E-07 0.123E-07 0.114E-05
 
 
 POSITION                                       TOTAL-FORCE (eV/Angst)
 -----------------------------------------------------------------------------------
      0.00523      0.00278     22.85369         0.000855     -0.001436      0.000291
      1.22600      0.70713     22.79211         0.001459      0.002645      0.002632
      0.00526      0.00281     19.10590         0.002135     -0.000917     -0.000591
      1.22605      0.70716     19.16768         0.000196      0.002379     -0.003110
     11.00944      2.12209     22.74680        -0.002769      0.005527     -0.001661
      2.44888      2.82334     22.79175        -0.002087     -0.013715      0.002781
     11.00947      2.12213     19.21296        -0.000633      0.003247      0.000878
      2.44891      2.82333     19.16801        -0.001954     -0.010756     -0.003303
      2.44967      4.23248     22.85314         0.000631      0.013984      0.001220
      3.68181      4.94205     22.77443        -0.013938     -0.002807      0.006269
      2.44970      4.23253     19.10641         0.001079      0.010581     -0.001479
      3.68183      4.94206     19.18496        -0.011558     -0.002152     -0.005871
      3.67606      6.35964     22.83902        -0.001518      0.007082      0.006055
      4.90735      7.06263     22.77481        -0.011466      0.004598      0.005502
      3.67613      6.35967     19.12034        -0.003836      0.006626     -0.006190
      4.90737      7.06267     19.18462        -0.009266      0.003689     -0.005115
      7.34908      8.46828     22.74615         0.005283     -0.007880     -0.000538
      3.67002      0.70624     22.79106        -0.011269      0.004820      0.003806
      7.34913      8.46830     19.21361         0.004136     -0.005700     -0.000133
      3.67001      0.70628     19.16868        -0.007114      0.002792     -0.004359
      3.68302      2.12449     22.74588         0.010099      0.004806     -0.000675
      4.90537      2.82953     22.46052        -0.009884     -0.007698     -0.006039
      3.68306      2.12451     19.21386         0.007683      0.004126     -0.000089
      4.90538      2.82955     19.49895        -0.007118     -0.006575      0.006970
      4.86486      4.25203     22.37855         0.008505     -0.002553     -0.001487
      5.82859      5.11590     21.69604         0.015496     -0.010863     -0.051547
      4.86493      4.25206     19.58081         0.006420     -0.003328      0.000849
      5.82864      5.11590     20.26331         0.015895     -0.010589      0.052498
      6.09584      6.38200     22.37881         0.009207     -0.000964     -0.000516
      7.34863      7.05724     22.46084        -0.000323      0.009953     -0.007508
      6.09590      6.38199     19.58060         0.008139      0.000558      0.000018
      7.34867      7.05728     19.49866         0.000301      0.007398      0.008354
      4.89016      0.00125     22.85224         0.008966     -0.005793      0.002491
      6.12120      0.71240     22.77368        -0.005804     -0.010839      0.007740
      4.89023      0.00126     19.10727         0.004993     -0.003676     -0.002629
      6.12121      0.71241     19.18568        -0.003858     -0.008947     -0.007274
      6.11624      2.08198     22.37829        -0.000083      0.012352     -0.001161
      7.34660      2.48376     21.69593        -0.000093      0.019918     -0.049730
      6.11630      2.08203     19.58108        -0.002128      0.011285      0.000507
      7.34661      2.48379     20.26343         0.000596      0.020137      0.050575
      8.86726      5.11507     21.69589        -0.017453     -0.011816     -0.051527
      8.86729      5.11508     20.26347        -0.017618     -0.011782      0.052379
      8.60100      6.38153     22.37839        -0.011653     -0.003837     -0.000496
      9.79013      7.06119     22.77357         0.011125      0.008772      0.008358
      8.60104      6.38152     19.58101        -0.011506     -0.001986     -0.000055
      9.79017      7.06123     19.18582         0.010203      0.006749     -0.007933
      7.34548     -0.00234     22.83850         0.003628     -0.004187      0.007110
      8.57039      0.71166     22.77472        -0.002357     -0.009767      0.005385
      7.34553     -0.00227     19.12082         0.002199     -0.007171     -0.007257
      8.57042      0.71167     19.18470        -0.001894     -0.006904     -0.004877
      8.57625      2.08141     22.37911         0.002855      0.009438     -0.002070
      9.78771      2.82814     22.46159         0.011085     -0.008133     -0.008760
      8.57628      2.08148     19.58030         0.003358      0.007424      0.001472
      9.78776      2.82816     19.49793         0.008954     -0.005899      0.009657
      9.82993      4.25052     22.37896        -0.008518     -0.004621     -0.002345
     11.01374      4.93968     22.77422         0.013003      0.000546      0.006855
      9.82994      4.25056     19.58046        -0.006526     -0.005616      0.001628
     11.01381      4.93970     19.18518         0.010140      0.001099     -0.006410
     11.02092      6.35740     22.83816        -0.005535     -0.000488      0.006949
     12.24643      7.06428     22.90020         0.002502      0.003001      0.010885
     11.02095      6.35743     19.12116        -0.004530     -0.000511     -0.006885
     12.24647      7.06429     19.05912         0.003162      0.004375     -0.010494
 -----------------------------------------------------------------------------------
    total drift:                               -0.000288     -0.000234     -0.000300


--------------------------------------------------------------------------------------------------------



  FREE ENERGIE OF THE ION-ELECTRON SYSTEM (eV)
  ---------------------------------------------------
  free  energy   TOTEN  =      -565.19737078 eV

  energy  without entropy=     -565.19737078  energy(sigma->0) =     -565.19737078
 


--------------------------------------------------------------------------------------------------------


    POTLOK:  cpu time    0.8360: real time    0.8402


--------------------------------------------------------------------------------------------------------


     LOOP+:  cpu time 9309.3968: real time 9336.2097
    4ORBIT:  cpu time    0.0000: real time    0.0000
 BZINTS: Fermi energy: -3.265478;248.000000 electrons
         Band energy:***********;  BLOECHL correction:  0.000000

 total amount of memory used by VASP MPI-rank0   612284. kBytes
=======================================================================

   base      :      30000. kBytes
   nonl-proj :      53362. kBytes
   fftplans  :      41096. kBytes
   grid      :      97443. kBytes
   one-center:         49. kBytes
   wavefun   :     390334. kBytes
 
  
  
 General timing and accounting informations for this job:
 ========================================================
  
                  Total CPU time used (sec):     9379.207
                            User time (sec):     9055.540
                          System time (sec):      323.668
                         Elapsed time (sec):     9406.633
  
                   Maximum memory used (kb):      718976.
                   Average memory used (kb):           0.
  
                          Minor page faults:     13606986
                          Major page faults:          144
                 Voluntary context switches:         4575
