<?xml version="1.0" encoding="ISO-8859-1"?>
<modeling>
 <generator>
  <i name="program" type="string">vasp </i>
  <i name="version" type="string">5.4.4.18Apr17-6-g9f103f2a35  </i>
  <i name="subversion" type="string">(build Jan 12 2023 11:40:15) complex            parallel </i>
  <i name="platform" type="string">LinuxIFC </i>
  <i name="date" type="string">2024 01 13 </i>
  <i name="time" type="string">00:40:56 </i>
 </generator>
 <incar>
  <i type="int" name="ISTART">     0</i>
  <i type="string" name="PREC">accurate   (precision level)</i>
  <i type="string" name="ALGO"> Normal</i>
  <i type="int" name="ISPIN">     2</i>
  <i type="int" name="ICHARG">     2</i>
  <i type="int" name="NELM">   150</i>
  <i type="int" name="IBRION">    -1</i>
  <i name="EDIFF">      0.00000010</i>
  <i type="int" name="NSW">     1</i>
  <i type="int" name="ISYM">     0</i>
  <i name="ENCUT">    850.00000000</i>
  <i type="logical" name="LREAL"> F  </i>
  <i type="int" name="ISMEAR">    -5</i>
  <i name="SIGMA">      0.02000000</i>
  <i name="KSPACING">      0.15000000</i>
  <i type="logical" name="KGAMMA"> T  </i>
  <i type="logical" name="LWAVE"> F  </i>
  <i type="logical" name="LCHARG"> F  </i>
  <v type="int" name="KPOINT_BSE">    -1     0     0     0</v>
  <i type="int" name="NELM">   150</i>
 </incar>
 <structure name="primitive_cell" >
  <crystal>
   <varray name="basis" >
    <v>       9.79547248      -0.00333527      -0.00000053 </v>
    <v>       4.90145290       8.48156207       0.00000839 </v>
    <v>      -0.00000267       0.00005124      49.95175233 </v>
   </varray>
   <i name="volume">   4150.85352548 </i>
   <varray name="rec_basis" >
    <v>       0.10206790      -0.05898453       0.00000007 </v>
    <v>       0.00004014       0.11787961      -0.00000012 </v>
    <v>       0.00000000      -0.00000002       0.02001932 </v>
   </varray>
  </crystal>
  <varray name="positions" >
   <v>       0.00037109       0.00032523       0.45751524 </v>
   <v>       0.08342726       0.08340273       0.45628254 </v>
   <v>      -0.16721417       0.08423183       0.45593436 </v>
   <v>       0.08429782      -0.16726542       0.45593609 </v>
   <v>       0.25060881      -0.00146976       0.45536224 </v>
   <v>      -0.00145869       0.25059044       0.45537546 </v>
   <v>      -0.25012301       0.00001575       0.45721126 </v>
   <v>       0.00008844      -0.25018282       0.45722149 </v>
   <v>      -0.24740949       0.24569769       0.44801454 </v>
   <v>       0.24575157      -0.24744978       0.44800833 </v>
   <v>      -0.16671390      -0.16677715       0.45844632 </v>
   <v>       0.33379291      -0.16780268       0.44965051 </v>
   <v>      -0.16780423       0.33377070       0.44966559 </v>
   <v>      -0.39664968       0.29307678       0.43433764 </v>
   <v>       0.29315471      -0.39670814       0.43433977 </v>
   <v>       0.33293573       0.08339591       0.45626146 </v>
   <v>       0.08342018       0.33290984       0.45627529 </v>
   <v>       0.00037250       0.00032877       0.38248712 </v>
   <v>      -0.41724120       0.08422018       0.45591358 </v>
   <v>       0.08429182      -0.41728847       0.45592849 </v>
   <v>      -0.16721129       0.08423304       0.38406461 </v>
   <v>       0.08429768      -0.16726072       0.38406292 </v>
   <v>       0.08343042       0.08340672       0.38372384 </v>
   <v>       0.24575836      -0.24745082       0.39199006 </v>
   <v>      -0.24741145       0.24570592       0.39198427 </v>
   <v>       0.25060779       0.25057965       0.45535688 </v>
   <v>      -0.25010422      -0.25015262       0.45720431 </v>
   <v>      -0.49853122       0.24566623       0.44799811 </v>
   <v>       0.24574330      -0.49857970       0.44800330 </v>
   <v>      -0.49852446      -0.24740539       0.44800005 </v>
   <v>      -0.24739352      -0.49855866       0.44801139 </v>
   <v>      -0.39665066       0.29308106       0.40566003 </v>
   <v>       0.29315909      -0.39670845       0.40565753 </v>
   <v>       0.25061222      -0.00146720       0.38464318 </v>
   <v>      -0.00145867       0.25059576       0.38463039 </v>
   <v>       0.33379421      -0.16779799       0.39034973 </v>
   <v>      -0.16779995       0.33377243       0.39033521 </v>
   <v>      -0.25012176       0.00002454       0.38278580 </v>
   <v>       0.00009383      -0.25017896       0.38277594 </v>
   <v>      -0.16671139      -0.16677446       0.38155043 </v>
   <v>       0.49905605       0.00034054       0.45748629 </v>
   <v>       0.00038317       0.49901811       0.45750420 </v>
   <v>      -0.41724164      -0.16724000       0.45591122 </v>
   <v>      -0.16721391      -0.41727326       0.45592432 </v>
   <v>      -0.41724067       0.08422237       0.38408419 </v>
   <v>       0.33293176       0.08340155       0.38374391 </v>
   <v>       0.08429223      -0.41728609       0.38406972 </v>
   <v>       0.08342335       0.33290960       0.38373052 </v>
   <v>      -0.39664556      -0.39668455       0.43433686 </v>
   <v>      -0.49852814       0.24567229       0.39199976 </v>
   <v>       0.24574884      -0.49857614       0.39199446 </v>
   <v>      -0.49852029      -0.24740564       0.39199825 </v>
   <v>      -0.24739521      -0.49855311       0.39198728 </v>
   <v>       0.25061016       0.25058240       0.38464824 </v>
   <v>      -0.25010326      -0.25014902       0.38279248 </v>
   <v>       0.33378343       0.33373846       0.44964417 </v>
   <v>      -0.39664424      -0.39668261       0.40566065 </v>
   <v>       0.49906205       0.00034232       0.38251443 </v>
   <v>       0.00038331       0.49902457       0.38249720 </v>
   <v>      -0.41723983      -0.16723401       0.38408680 </v>
   <v>      -0.16720850      -0.41727016       0.38407417 </v>
   <v>       0.33378356       0.33374044       0.39035558 </v>
  </varray>
 </structure>
 <varray name="primitive_index" >
  <v type="int" >        1 </v>
  <v type="int" >        2 </v>
  <v type="int" >       48 </v>
  <v type="int" >       14 </v>
  <v type="int" >       17 </v>
  <v type="int" >        5 </v>
  <v type="int" >       47 </v>
  <v type="int" >       13 </v>
  <v type="int" >       51 </v>
  <v type="int" >       29 </v>
  <v type="int" >       60 </v>
  <v type="int" >       30 </v>
  <v type="int" >       52 </v>
  <v type="int" >       38 </v>
  <v type="int" >       26 </v>
  <v type="int" >       18 </v>
  <v type="int" >        6 </v>
  <v type="int" >        3 </v>
  <v type="int" >       34 </v>
  <v type="int" >       10 </v>
  <v type="int" >       50 </v>
  <v type="int" >       16 </v>
  <v type="int" >        4 </v>
  <v type="int" >       31 </v>
  <v type="int" >       53 </v>
  <v type="int" >       21 </v>
  <v type="int" >       59 </v>
  <v type="int" >       37 </v>
  <v type="int" >       25 </v>
  <v type="int" >       43 </v>
  <v type="int" >       55 </v>
  <v type="int" >       40 </v>
  <v type="int" >       28 </v>
  <v type="int" >       19 </v>
  <v type="int" >        7 </v>
  <v type="int" >       32 </v>
  <v type="int" >       54 </v>
  <v type="int" >       49 </v>
  <v type="int" >       15 </v>
  <v type="int" >       62 </v>
  <v type="int" >       33 </v>
  <v type="int" >        9 </v>
  <v type="int" >       44 </v>
  <v type="int" >       56 </v>
  <v type="int" >       36 </v>
  <v type="int" >       20 </v>
  <v type="int" >       12 </v>
  <v type="int" >        8 </v>
  <v type="int" >       41 </v>
  <v type="int" >       39 </v>
  <v type="int" >       27 </v>
  <v type="int" >       45 </v>
  <v type="int" >       57 </v>
  <v type="int" >       23 </v>
  <v type="int" >       61 </v>
  <v type="int" >       22 </v>
  <v type="int" >       42 </v>
  <v type="int" >       35 </v>
  <v type="int" >       11 </v>
  <v type="int" >       46 </v>
  <v type="int" >       58 </v>
  <v type="int" >       24 </v>
 </varray>
 <kpoints>
  <generation param="Gamma">
   <v type="int" name="divisions">       5        5        1 </v>
   <v name="usershift">      0.00000000       0.00000000       0.00000000 </v>
   <v name="genvec1">      0.20000000      -0.00000000      -0.00000000 </v>
   <v name="genvec2">      0.00000000       0.20000000      -0.00000000 </v>
   <v name="genvec3">      0.00000000      -0.00000000       1.00000000 </v>
   <v name="shift">      0.00000000       0.00000000       0.00000000 </v>
  </generation>
  <varray name="kpointlist" >
   <v>       0.00000000       0.00000000       0.00000000 </v>
   <v>       0.20000000       0.00000000      -0.00000000 </v>
   <v>       0.40000000       0.00000000      -0.00000000 </v>
   <v>      -0.00000000       0.20000000      -0.00000000 </v>
   <v>       0.20000000       0.20000000       0.00000000 </v>
   <v>       0.40000000       0.20000000       0.00000000 </v>
   <v>      -0.40000000       0.20000000       0.00000000 </v>
   <v>      -0.20000000       0.20000000       0.00000000 </v>
   <v>      -0.00000000       0.40000000      -0.00000000 </v>
   <v>       0.20000000       0.40000000       0.00000000 </v>
   <v>       0.40000000       0.40000000       0.00000000 </v>
   <v>      -0.40000000       0.40000000       0.00000000 </v>
   <v>      -0.20000000       0.40000000       0.00000000 </v>
  </varray>
  <varray name="weights" >
   <v>       0.04000000 </v>
   <v>       0.08000000 </v>
   <v>       0.08000000 </v>
   <v>       0.08000000 </v>
   <v>       0.08000000 </v>
   <v>       0.08000000 </v>
   <v>       0.08000000 </v>
   <v>       0.08000000 </v>
   <v>       0.08000000 </v>
   <v>       0.08000000 </v>
   <v>       0.08000000 </v>
   <v>       0.08000000 </v>
   <v>       0.08000000 </v>
  </varray>
  <varray name="tetrahedronlist"  type="int" >
   <v type="int" >        2        1        1        2        5 </v>
   <v type="int" >        2        1        1        4        5 </v>
   <v type="int" >        2        1        4        4        5 </v>
   <v type="int" >        2        1        2        2        5 </v>
   <v type="int" >        2        1        2        5        5 </v>
   <v type="int" >        2        1        4        5        5 </v>
   <v type="int" >        2        2        2        3        6 </v>
   <v type="int" >        2        2        2        5        6 </v>
   <v type="int" >        2        2        5        5        6 </v>
   <v type="int" >        2        2        3        3        6 </v>
   <v type="int" >        2        2        3        6        6 </v>
   <v type="int" >        2        2        5        6        6 </v>
   <v type="int" >        4        3        3        3        7 </v>
   <v type="int" >        2        3        3        6        7 </v>
   <v type="int" >        2        3        6        6        7 </v>
   <v type="int" >        2        3        3        7        7 </v>
   <v type="int" >        2        3        6        7        7 </v>
   <v type="int" >        2        2        3        3        8 </v>
   <v type="int" >        2        3        3        7        8 </v>
   <v type="int" >        2        3        7        7        8 </v>
   <v type="int" >        2        2        2        3        8 </v>
   <v type="int" >        2        2        3        8        8 </v>
   <v type="int" >        2        3        7        8        8 </v>
   <v type="int" >        2        1        2        2        4 </v>
   <v type="int" >        2        2        2        4        8 </v>
   <v type="int" >        2        2        4        8        8 </v>
   <v type="int" >        2        1        1        2        4 </v>
   <v type="int" >        2        1        2        4        4 </v>
   <v type="int" >        2        2        4        4        8 </v>
   <v type="int" >        2        4        4        5       10 </v>
   <v type="int" >        2        4        4        9       10 </v>
   <v type="int" >        2        4        9        9       10 </v>
   <v type="int" >        2        4        5        5       10 </v>
   <v type="int" >        2        4        5       10       10 </v>
   <v type="int" >        2        4        9       10       10 </v>
   <v type="int" >        2        5        5        6       11 </v>
   <v type="int" >        2        5        5       10       11 </v>
   <v type="int" >        2        5       10       10       11 </v>
   <v type="int" >        2        5        6        6       11 </v>
   <v type="int" >        2        5        6       11       11 </v>
   <v type="int" >        2        5       10       11       11 </v>
   <v type="int" >        2        6        6        7       12 </v>
   <v type="int" >        2        6        6       11       12 </v>
   <v type="int" >        2        6       11       11       12 </v>
   <v type="int" >        2        6        7        7       12 </v>
   <v type="int" >        2        6        7       12       12 </v>
   <v type="int" >        2        6       11       12       12 </v>
   <v type="int" >        2        7        7        8       13 </v>
   <v type="int" >        2        7        7       12       13 </v>
   <v type="int" >        2        7       12       12       13 </v>
   <v type="int" >        2        7        8        8       13 </v>
   <v type="int" >        2        7        8       13       13 </v>
   <v type="int" >        2        7       12       13       13 </v>
   <v type="int" >        2        4        8        8        9 </v>
   <v type="int" >        2        8        8        9       13 </v>
   <v type="int" >        2        8        9       13       13 </v>
   <v type="int" >        2        4        4        8        9 </v>
   <v type="int" >        2        4        8        9        9 </v>
   <v type="int" >        2        8        9        9       13 </v>
   <v type="int" >        2        9        9       10       13 </v>
   <v type="int" >        4        9        9        9       13 </v>
   <v type="int" >        2        9       10       10       13 </v>
   <v type="int" >        2        9       10       13       13 </v>
   <v type="int" >        2        9        9       13       13 </v>
   <v type="int" >        2       10       10       11       12 </v>
   <v type="int" >        2       10       10       12       13 </v>
   <v type="int" >        2       10       12       13       13 </v>
   <v type="int" >        2       10       11       11       12 </v>
   <v type="int" >        2       10       11       12       12 </v>
   <v type="int" >        2       10       12       12       13 </v>
   <v type="int" >        4       11       11       11       12 </v>
   <v type="int" >        2       11       11       12       12 </v>
  </varray>
  <i name="volumeweight">      0.00666667 </i>
 </kpoints>
 <parameters>
  <separator name="general" >
   <i type="string" name="SYSTEM">unknown system</i>
   <i type="logical" name="LCOMPAT"> F  </i>
  </separator>
  <separator name="electronic" >
   <i type="string" name="PREC">accura</i>
   <i name="ENMAX">    850.00000000</i>
   <i name="ENAUG">    644.87300000</i>
   <i name="EDIFF">      0.00000010</i>
   <i type="int" name="IALGO">    38</i>
   <i type="int" name="IWAVPR">    10</i>
   <i type="int" name="NBANDS">   192</i>
   <i name="NELECT">    248.00000000</i>
   <i type="int" name="TURBO">     0</i>
   <i type="int" name="IRESTART">     0</i>
   <i type="int" name="NREBOOT">     0</i>
   <i type="int" name="NMIN">     0</i>
   <i name="EREF">      0.00000000</i>
   <separator name="electronic smearing" >
    <i type="int" name="ISMEAR">    -5</i>
    <i name="SIGMA">      0.02000000</i>
    <i name="KSPACING">      0.15000000</i>
    <i type="logical" name="KGAMMA"> T  </i>
   </separator>
   <separator name="electronic projectors" >
    <i type="logical" name="LREAL"> F  </i>
    <v name="ROPT">      0.00000000</v>
    <i type="int" name="LMAXPAW">  -100</i>
    <i type="int" name="LMAXMIX">     2</i>
    <i type="logical" name="NLSPLINE"> F  </i>
   </separator>
   <separator name="electronic startup" >
    <i type="int" name="ISTART">     0</i>
    <i type="int" name="ICHARG">     2</i>
    <i type="int" name="INIWAV">     1</i>
   </separator>
   <separator name="electronic spin" >
    <i type="int" name="ISPIN">     2</i>
    <i type="logical" name="LNONCOLLINEAR"> F  </i>
    <v name="MAGMOM">      1.00000000      1.00000000      1.00000000      1.00000000      1.00000000      1.00000000      1.00000000      1.00000000      1.00000000      1.00000000      1.00000000      1.00000000      1.00000000      1.00000000      1.00000000      1.00000000      1.00000000      1.00000000      1.00000000      1.00000000
      1.00000000      1.00000000      1.00000000      1.00000000      1.00000000      1.00000000      1.00000000      1.00000000      1.00000000      1.00000000      1.00000000      1.00000000      1.00000000      1.00000000      1.00000000      1.00000000      1.00000000      1.00000000      1.00000000      1.00000000
      1.00000000      1.00000000      1.00000000      1.00000000      1.00000000      1.00000000      1.00000000      1.00000000      1.00000000      1.00000000      1.00000000      1.00000000      1.00000000      1.00000000      1.00000000      1.00000000      1.00000000      1.00000000      1.00000000      1.00000000
      1.00000000      1.00000000</v>
    <i name="NUPDOWN">     -1.00000000</i>
    <i type="logical" name="LSORBIT"> F  </i>
    <v name="SAXIS">      0.00000000      0.00000000      1.00000000</v>
    <i type="logical" name="LSPIRAL"> F  </i>
    <v name="QSPIRAL">      0.00000000      0.00000000      0.00000000</v>
    <i type="logical" name="LZEROZ"> F  </i>
   </separator>
   <separator name="electronic exchange-correlation" >
    <i type="logical" name="LASPH"> F  </i>
    <i type="logical" name="LMETAGGA"> F  </i>
   </separator>
   <separator name="electronic convergence" >
    <i type="int" name="NELM">   150</i>
    <i type="int" name="NELMDL">    -5</i>
    <i type="int" name="NELMIN">     2</i>
    <i name="ENINI">    850.00000000</i>
    <separator name="electronic convergence detail" >
     <i type="logical" name="LDIAG"> T  </i>
     <i type="logical" name="LSUBROT"> F  </i>
     <i name="WEIMIN">      0.00000000</i>
     <i name="EBREAK">      0.00000000</i>
     <i name="DEPER">      0.30000000</i>
     <i type="int" name="NRMM">     4</i>
     <i name="TIME">      0.40000000</i>
    </separator>
   </separator>
   <separator name="electronic mixer" >
    <i name="AMIX">      0.40000000</i>
    <i name="BMIX">      1.00000000</i>
    <i name="AMIN">      0.10000000</i>
    <i name="AMIX_MAG">      1.60000000</i>
    <i name="BMIX_MAG">      1.00000000</i>
    <separator name="electronic mixer details" >
     <i type="int" name="IMIX">     4</i>
     <i type="logical" name="MIXFIRST"> F  </i>
     <i type="int" name="MAXMIX">   -45</i>
     <i name="WC">    100.00000000</i>
     <i type="int" name="INIMIX">     1</i>
     <i type="int" name="MIXPRE">     1</i>
     <i type="int" name="MREMOVE">     5</i>
    </separator>
   </separator>
   <separator name="electronic dipolcorrection" >
    <i type="logical" name="LDIPOL"> F  </i>
    <i type="logical" name="LMONO"> F  </i>
    <i type="int" name="IDIPOL">     0</i>
    <i name="EPSILON">      1.00000000</i>
    <v name="DIPOL">   -100.00000000   -100.00000000   -100.00000000</v>
    <i name="EFIELD">      0.00000000</i>
   </separator>
  </separator>
  <separator name="grids" >
   <i type="int" name="NGX">    96</i>
   <i type="int" name="NGY">    96</i>
   <i type="int" name="NGZ">   480</i>
   <i type="int" name="NGXF">   192</i>
   <i type="int" name="NGYF">   192</i>
   <i type="int" name="NGZF">   960</i>
   <i type="logical" name="ADDGRID"> F  </i>
  </separator>
  <separator name="ionic" >
   <i type="int" name="NSW">     1</i>
   <i type="int" name="IBRION">    -1</i>
   <i type="int" name="MDALGO">     0</i>
   <i type="int" name="ISIF">     2</i>
   <i name="PSTRESS">      0.00000000</i>
   <i name="EDIFFG">      0.00000100</i>
   <i type="int" name="NFREE">     0</i>
   <i name="POTIM">      0.50000000</i>
   <i name="SMASS">     -3.00000000</i>
   <i name="SCALEE">      1.00000000</i>
  </separator>
  <separator name="ionic md" >
   <i name="TEBEG">      0.00010000</i>
   <i name="TEEND">      0.00010000</i>
   <i type="int" name="NBLOCK">     1</i>
   <i type="int" name="KBLOCK">     1</i>
   <i type="int" name="NPACO">   256</i>
   <i name="APACO">     16.00000000</i>
  </separator>
  <separator name="symmetry" >
   <i type="int" name="ISYM">     0</i>
   <i name="SYMPREC">      0.00001000</i>
  </separator>
  <separator name="dos" >
   <i type="int" name="LORBIT">     0</i>
   <v name="RWIGS">     -1.00000000</v>
   <i type="int" name="NEDOS">   301</i>
   <i name="EMIN">     10.00000000</i>
   <i name="EMAX">    -10.00000000</i>
   <i name="EFERMI">      0.00000000</i>
  </separator>
  <separator name="writing" >
   <i type="int" name="NWRITE">     2</i>
   <i type="logical" name="LWAVE"> F  </i>
   <i type="logical" name="LDOWNSAMPLE"> F  </i>
   <i type="logical" name="LCHARG"> F  </i>
   <i type="logical" name="LPARD"> F  </i>
   <i type="logical" name="LVTOT"> F  </i>
   <i type="logical" name="LVHAR"> F  </i>
   <i type="logical" name="LELF"> F  </i>
   <i type="logical" name="LOPTICS"> F  </i>
   <v name="STM">      0.00000000      0.00000000      0.00000000      0.00000000      0.00000000      0.00000000      0.00000000</v>
  </separator>
  <separator name="performance" >
   <i type="int" name="NPAR">     6</i>
   <i type="int" name="NSIM">     4</i>
   <i type="int" name="NBLK">    -1</i>
   <i type="logical" name="LPLANE"> T  </i>
   <i type="logical" name="LSCALAPACK"> F  </i>
   <i type="logical" name="LSCAAWARE"> F  </i>
   <i type="logical" name="LSCALU"> F  </i>
   <i type="logical" name="LASYNC"> F  </i>
   <i type="logical" name="LORBITALREAL"> F  </i>
  </separator>
  <separator name="miscellaneous" >
   <i type="int" name="IDIOT">     3</i>
   <i type="int" name="ISPECIAL">     0</i>
   <i type="logical" name="LMUSIC"> F  </i>
   <v name="POMASS">     12.01100000</v>
   <v name="DARWINR">      0.00000000</v>
   <v name="DARWINV">      1.00000000</v>
   <i type="logical" name="LCORR"> T  </i>
  </separator>
  <i type="logical" name="GGA_COMPAT"> T  </i>
  <i type="logical" name="LBERRY"> F  </i>
  <i type="int" name="ICORELEVEL">     0</i>
  <i type="logical" name="LDAU"> F  </i>
  <i type="int" name="I_CONSTRAINED_M">     0</i>
  <separator name="electronic exchange-correlation" >
   <i type="string" name="GGA">--</i>
   <i type="int" name="VOSKOWN">     0</i>
   <i type="logical" name="LHFCALC"> F  </i>
   <i type="string" name="PRECFOCK"></i>
   <i type="logical" name="LSYMGRAD"> F  </i>
   <i type="logical" name="LHFONE"> F  </i>
   <i type="logical" name="LRHFCALC"> F  </i>
   <i type="logical" name="LTHOMAS"> F  </i>
   <i type="logical" name="LMODELHF"> F  </i>
   <i name="ENCUT4O">     -1.00000000</i>
   <i type="int" name="EXXOEP">     0</i>
   <i type="int" name="FOURORBIT">     0</i>
   <i name="AEXX">      0.00000000</i>
   <i name="HFALPHA">      0.00000000</i>
   <i name="MCALPHA">      0.00000000</i>
   <i name="ALDAX">      1.00000000</i>
   <i name="AGGAX">      1.00000000</i>
   <i name="ALDAC">      1.00000000</i>
   <i name="AGGAC">      1.00000000</i>
   <i type="int" name="NKREDX">     1</i>
   <i type="int" name="NKREDY">     1</i>
   <i type="int" name="NKREDZ">     1</i>
   <i type="logical" name="SHIFTRED"> F  </i>
   <i type="logical" name="ODDONLY"> F  </i>
   <i type="logical" name="EVENONLY"> F  </i>
   <i type="int" name="LMAXFOCK">     0</i>
   <i type="int" name="NMAXFOCKAE">     0</i>
   <i type="logical" name="LFOCKAEDFT"> F  </i>
   <i name="HFSCREEN">      0.00000000</i>
   <i name="HFSCREENC">      0.00000000</i>
   <i type="int" name="NBANDSGWLOW">     0</i>
  </separator>
  <separator name="vdW DFT" >
   <i type="logical" name="LUSE_VDW"> F  </i>
   <i name="Zab_VDW">     -0.84910000</i>
   <i name="PARAM1">      0.12340000</i>
   <i name="PARAM2">      1.00000000</i>
   <i name="PARAM3">      0.00000000</i>
  </separator>
  <separator name="model GW" >
   <i type="int" name="MODEL_GW">     0</i>
   <i name="MODEL_EPS0">     40.16955025</i>
   <i name="MODEL_ALPHA">      1.00000000</i>
  </separator>
  <separator name="linear response parameters" >
   <i type="logical" name="LEPSILON"> F  </i>
   <i type="logical" name="LRPA"> F  </i>
   <i type="logical" name="LNABLA"> F  </i>
   <i type="logical" name="LVEL"> F  </i>
   <i type="int" name="KINTER">     0</i>
   <i name="CSHIFT">      0.10000000</i>
   <i name="OMEGAMAX">     -1.00000000</i>
   <i name="DEG_THRESHOLD">      0.00200000</i>
   <i name="RTIME">     -0.10000000</i>
   <i name="WPLASMAI">      0.00000000</i>
   <v name="DFIELD">      0.00000000      0.00000000      0.00000000</v>
   <v name="WPLASMA">      0.00000000      0.00000000      0.00000000      0.00000000      0.00000000      0.00000000      0.00000000      0.00000000      0.00000000</v>
  </separator>
  <separator name="orbital magnetization" >
   <i type="logical" name="NUCIND"> F  </i>
   <v name="MAGPOS">      0.00000000      0.00000000      0.00000000</v>
   <i type="logical" name="LNICSALL"> T  </i>
   <i type="logical" name="ORBITALMAG"> F  </i>
   <i type="logical" name="LMAGBLOCH"> F  </i>
   <i type="logical" name="LCHIMAG"> F  </i>
   <i type="logical" name="LGAUGE"> T  </i>
   <i type="int" name="MAGATOM">     0</i>
   <v name="MAGDIPOL">      0.00000000      0.00000000      0.00000000</v>
   <v name="AVECCONST">      0.00000000      0.00000000      0.00000000</v>
  </separator>
  <separator name="response functions" >
   <i type="logical" name="LADDER"> F  </i>
   <i type="logical" name="LRPAFORCE"> F  </i>
   <i type="logical" name="LFXC"> F  </i>
   <i type="logical" name="LHARTREE"> T  </i>
   <i type="int" name="IBSE">     0</i>
   <v type="int" name="KPOINT">    -1     0     0     0</v>
   <i type="logical" name="LTCTE"> F  </i>
   <i type="logical" name="LTETE"> F  </i>
   <i type="logical" name="LTRIPLET"> F  </i>
   <i type="logical" name="LFXCEPS"> F  </i>
   <i type="logical" name="LFXHEG"> F  </i>
   <i type="int" name="NATURALO">     2</i>
   <i type="logical" name="L2ORDER"> F  </i>
   <i type="logical" name="LMP2LT"> F  </i>
   <i type="logical" name="LUSEW"> F  </i>
   <i name="ENCUTGW">     -2.00000000</i>
   <i name="ENCUTGWSOFT">     -2.00000000</i>
   <i name="ENCUTLF">     -1.00000000</i>
   <i type="int" name="LMAXMP2">    -1</i>
   <i name="SCISSOR">      0.00000000</i>
   <i type="int" name="NOMEGA">     0</i>
   <i type="int" name="NOMEGAR">     0</i>
   <i type="int" name="NBANDSGW">    -1</i>
   <i type="int" name="NBANDSO">    -1</i>
   <i type="int" name="NBANDSV">    -1</i>
   <i type="int" name="NELM">   150</i>
   <i type="int" name="NELMHF">     1</i>
   <i type="int" name="DIM">     3</i>
   <i type="int" name="ANTIRES">     0</i>
   <i name="OMEGAMAX">    -30.00000000</i>
   <i name="OMEGAMIN">    -30.00000000</i>
   <i name="OMEGATL">   -200.00000000</i>
   <i type="int" name="OMEGAGRID">   140</i>
   <i name="CSHIFT">     -0.10000000</i>
   <i type="logical" name="SELFENERGY"> F  </i>
   <i type="logical" name="LSPECTRAL"> F  </i>
   <i type="logical" name="LSPECTRALGW"> F  </i>
   <i type="logical" name="LSINGLES"> F  </i>
   <i type="logical" name="LFERMIGW"> F  </i>
   <i type="logical" name="ODDONLYGW"> F  </i>
   <i type="logical" name="EVENONLYGW"> F  </i>
   <i type="int" name="NKREDLFX">     1</i>
   <i type="int" name="NKREDLFY">     1</i>
   <i type="int" name="NKREDLFZ">     1</i>
   <i type="int" name="MAXMEM">  2800</i>
   <i type="int" name="TELESCOPE">     0</i>
   <i type="int" name="TAUPAR">     1</i>
   <i type="int" name="OMEGAPAR">    -1</i>
   <i name="LAMBDA">      1.00000000</i>
  </separator>
  <separator name="External order field" >
   <i name="OFIELD_KAPPA">      0.00000000</i>
   <v name="OFIELD_K">      0.00000000      0.00000000      0.00000000</v>
   <i name="OFIELD_Q6_NEAR">      0.00000000</i>
   <i name="OFIELD_Q6_FAR">      0.00000000</i>
   <i name="OFIELD_A">      0.00000000</i>
  </separator>
 </parameters>
 <atominfo>
  <atoms>      62 </atoms>
  <types>       1 </types>
  <array name="atoms" >
   <dimension dim="1">ion</dimension>
   <field type="string">element</field>
   <field type="int">atomtype</field>
   <set>
    <rc><c>C </c><c>   1</c></rc>
    <rc><c>C </c><c>   1</c></rc>
    <rc><c>C </c><c>   1</c></rc>
    <rc><c>C </c><c>   1</c></rc>
    <rc><c>C </c><c>   1</c></rc>
    <rc><c>C </c><c>   1</c></rc>
    <rc><c>C </c><c>   1</c></rc>
    <rc><c>C </c><c>   1</c></rc>
    <rc><c>C </c><c>   1</c></rc>
    <rc><c>C </c><c>   1</c></rc>
    <rc><c>C </c><c>   1</c></rc>
    <rc><c>C </c><c>   1</c></rc>
    <rc><c>C </c><c>   1</c></rc>
    <rc><c>C </c><c>   1</c></rc>
    <rc><c>C </c><c>   1</c></rc>
    <rc><c>C </c><c>   1</c></rc>
    <rc><c>C </c><c>   1</c></rc>
    <rc><c>C </c><c>   1</c></rc>
    <rc><c>C </c><c>   1</c></rc>
    <rc><c>C </c><c>   1</c></rc>
    <rc><c>C </c><c>   1</c></rc>
    <rc><c>C </c><c>   1</c></rc>
    <rc><c>C </c><c>   1</c></rc>
    <rc><c>C </c><c>   1</c></rc>
    <rc><c>C </c><c>   1</c></rc>
    <rc><c>C </c><c>   1</c></rc>
    <rc><c>C </c><c>   1</c></rc>
    <rc><c>C </c><c>   1</c></rc>
    <rc><c>C </c><c>   1</c></rc>
    <rc><c>C </c><c>   1</c></rc>
    <rc><c>C </c><c>   1</c></rc>
    <rc><c>C </c><c>   1</c></rc>
    <rc><c>C </c><c>   1</c></rc>
    <rc><c>C </c><c>   1</c></rc>
    <rc><c>C </c><c>   1</c></rc>
    <rc><c>C </c><c>   1</c></rc>
    <rc><c>C </c><c>   1</c></rc>
    <rc><c>C </c><c>   1</c></rc>
    <rc><c>C </c><c>   1</c></rc>
    <rc><c>C </c><c>   1</c></rc>
    <rc><c>C </c><c>   1</c></rc>
    <rc><c>C </c><c>   1</c></rc>
    <rc><c>C </c><c>   1</c></rc>
    <rc><c>C </c><c>   1</c></rc>
    <rc><c>C </c><c>   1</c></rc>
    <rc><c>C </c><c>   1</c></rc>
    <rc><c>C </c><c>   1</c></rc>
    <rc><c>C </c><c>   1</c></rc>
    <rc><c>C </c><c>   1</c></rc>
    <rc><c>C </c><c>   1</c></rc>
    <rc><c>C </c><c>   1</c></rc>
    <rc><c>C </c><c>   1</c></rc>
    <rc><c>C </c><c>   1</c></rc>
    <rc><c>C </c><c>   1</c></rc>
    <rc><c>C </c><c>   1</c></rc>
    <rc><c>C </c><c>   1</c></rc>
    <rc><c>C </c><c>   1</c></rc>
    <rc><c>C </c><c>   1</c></rc>
    <rc><c>C </c><c>   1</c></rc>
    <rc><c>C </c><c>   1</c></rc>
    <rc><c>C </c><c>   1</c></rc>
    <rc><c>C </c><c>   1</c></rc>
   </set>
  </array>
  <array name="atomtypes" >
   <dimension dim="1">type</dimension>
   <field type="int">atomspertype</field>
   <field type="string">element</field>
   <field>mass</field>
   <field>valence</field>
   <field type="string">pseudopotential</field>
   <set>
    <rc><c>  62</c><c>C </c><c>     12.01100000</c><c>      4.00000000</c><c>  PAW_PBE C 08Apr2002                   </c></rc>
   </set>
  </array>
 </atominfo>
 <structure name="initialpos" >
  <crystal>
   <varray name="basis" >
    <v>       9.79547248      -0.00333527      -0.00000053 </v>
    <v>       4.90145290       8.48156207       0.00000839 </v>
    <v>      -0.00000267       0.00005124      49.95175233 </v>
   </varray>
   <i name="volume">   4150.85352548 </i>
   <varray name="rec_basis" >
    <v>       0.10206790      -0.05898453       0.00000007 </v>
    <v>       0.00004014       0.11787961      -0.00000012 </v>
    <v>       0.00000000      -0.00000002       0.02001932 </v>
   </varray>
  </crystal>
  <varray name="positions" >
   <v>       0.00037109       0.00032523       0.45751524 </v>
   <v>       0.08342726       0.08340273       0.45628254 </v>
   <v>       0.00037250       0.00032877       0.38248712 </v>
   <v>       0.08343042       0.08340672       0.38372384 </v>
   <v>       0.99854131       0.25059044       0.45537546 </v>
   <v>       0.08342018       0.33290984       0.45627529 </v>
   <v>       0.99854133       0.25059576       0.38463039 </v>
   <v>       0.08342335       0.33290960       0.38373052 </v>
   <v>       0.00038317       0.49901811       0.45750420 </v>
   <v>       0.08429182       0.58271153       0.45592849 </v>
   <v>       0.00038331       0.49902457       0.38249720 </v>
   <v>       0.08429223       0.58271391       0.38406972 </v>
   <v>       0.00008844       0.74981718       0.45722149 </v>
   <v>       0.08429782       0.83273458       0.45593609 </v>
   <v>       0.00009383       0.74982104       0.38277594 </v>
   <v>       0.08429768       0.83273928       0.38406292 </v>
   <v>       0.25060881       0.99853024       0.45536224 </v>
   <v>       0.33293573       0.08339591       0.45626146 </v>
   <v>       0.25061222       0.99853280       0.38464318 </v>
   <v>       0.33293176       0.08340155       0.38374391 </v>
   <v>       0.25060779       0.25057965       0.45535688 </v>
   <v>       0.33378343       0.33373846       0.44964417 </v>
   <v>       0.25061016       0.25058240       0.38464824 </v>
   <v>       0.33378356       0.33374044       0.39035558 </v>
   <v>       0.24574330       0.50142030       0.44800330 </v>
   <v>       0.29315471       0.60329186       0.43433977 </v>
   <v>       0.24574884       0.50142386       0.39199446 </v>
   <v>       0.29315909       0.60329155       0.40565753 </v>
   <v>       0.24575157       0.75255022       0.44800833 </v>
   <v>       0.33379291       0.83219732       0.44965051 </v>
   <v>       0.24575836       0.75254918       0.39199006 </v>
   <v>       0.33379421       0.83220201       0.39034973 </v>
   <v>       0.49905605       0.00034054       0.45748629 </v>
   <v>       0.58275880       0.08422018       0.45591358 </v>
   <v>       0.49906205       0.00034232       0.38251443 </v>
   <v>       0.58275933       0.08422237       0.38408419 </v>
   <v>       0.50146878       0.24566623       0.44799811 </v>
   <v>       0.60335032       0.29307678       0.43433764 </v>
   <v>       0.50147186       0.24567229       0.39199976 </v>
   <v>       0.60334934       0.29308106       0.40566003 </v>
   <v>       0.60335444       0.60331545       0.43433686 </v>
   <v>       0.60335576       0.60331739       0.40566065 </v>
   <v>       0.50147554       0.75259461       0.44800005 </v>
   <v>       0.58275836       0.83276000       0.45591122 </v>
   <v>       0.50147971       0.75259436       0.39199825 </v>
   <v>       0.58276017       0.83276599       0.38408680 </v>
   <v>       0.74987699       0.00001575       0.45721126 </v>
   <v>       0.83278583       0.08423183       0.45593436 </v>
   <v>       0.74987824       0.00002454       0.38278580 </v>
   <v>       0.83278871       0.08423304       0.38406461 </v>
   <v>       0.75259051       0.24569769       0.44801454 </v>
   <v>       0.83219577       0.33377070       0.44966559 </v>
   <v>       0.75258855       0.24570592       0.39198427 </v>
   <v>       0.83220005       0.33377243       0.39033521 </v>
   <v>       0.75260648       0.50144134       0.44801139 </v>
   <v>       0.83278609       0.58272674       0.45592432 </v>
   <v>       0.75260479       0.50144689       0.39198728 </v>
   <v>       0.83279150       0.58272984       0.38407417 </v>
   <v>       0.74989578       0.74984738       0.45720431 </v>
   <v>       0.83328610       0.83322285       0.45844632 </v>
   <v>       0.74989674       0.74985098       0.38279248 </v>
   <v>       0.83328861       0.83322554       0.38155043 </v>
  </varray>
  <varray name="velocities" >
   <v>       0.00000000       0.00000000       0.00000000 </v>
   <v>       0.00000000       0.00000000       0.00000000 </v>
   <v>       0.00000000       0.00000000       0.00000000 </v>
   <v>       0.00000000       0.00000000       0.00000000 </v>
   <v>       0.00000000       0.00000000       0.00000000 </v>
   <v>       0.00000000       0.00000000       0.00000000 </v>
   <v>       0.00000000       0.00000000       0.00000000 </v>
   <v>       0.00000000       0.00000000       0.00000000 </v>
   <v>       0.00000000       0.00000000       0.00000000 </v>
   <v>       0.00000000       0.00000000       0.00000000 </v>
   <v>       0.00000000       0.00000000       0.00000000 </v>
   <v>       0.00000000       0.00000000       0.00000000 </v>
   <v>       0.00000000       0.00000000       0.00000000 </v>
   <v>       0.00000000       0.00000000       0.00000000 </v>
   <v>       0.00000000       0.00000000       0.00000000 </v>
   <v>       0.00000000       0.00000000       0.00000000 </v>
   <v>       0.00000000       0.00000000       0.00000000 </v>
   <v>       0.00000000       0.00000000       0.00000000 </v>
   <v>       0.00000000       0.00000000       0.00000000 </v>
   <v>       0.00000000       0.00000000       0.00000000 </v>
   <v>       0.00000000       0.00000000       0.00000000 </v>
   <v>       0.00000000       0.00000000       0.00000000 </v>
   <v>       0.00000000       0.00000000       0.00000000 </v>
   <v>       0.00000000       0.00000000       0.00000000 </v>
   <v>       0.00000000       0.00000000       0.00000000 </v>
   <v>       0.00000000       0.00000000       0.00000000 </v>
   <v>       0.00000000       0.00000000       0.00000000 </v>
   <v>       0.00000000       0.00000000       0.00000000 </v>
   <v>       0.00000000       0.00000000       0.00000000 </v>
   <v>       0.00000000       0.00000000       0.00000000 </v>
   <v>       0.00000000       0.00000000       0.00000000 </v>
   <v>       0.00000000       0.00000000       0.00000000 </v>
   <v>       0.00000000       0.00000000       0.00000000 </v>
   <v>       0.00000000       0.00000000       0.00000000 </v>
   <v>       0.00000000       0.00000000       0.00000000 </v>
   <v>       0.00000000       0.00000000       0.00000000 </v>
   <v>       0.00000000       0.00000000       0.00000000 </v>
   <v>       0.00000000       0.00000000       0.00000000 </v>
   <v>       0.00000000       0.00000000       0.00000000 </v>
   <v>       0.00000000       0.00000000       0.00000000 </v>
   <v>       0.00000000       0.00000000       0.00000000 </v>
   <v>       0.00000000       0.00000000       0.00000000 </v>
   <v>       0.00000000       0.00000000       0.00000000 </v>
   <v>       0.00000000       0.00000000       0.00000000 </v>
   <v>       0.00000000       0.00000000       0.00000000 </v>
   <v>       0.00000000       0.00000000       0.00000000 </v>
   <v>       0.00000000       0.00000000       0.00000000 </v>
   <v>       0.00000000       0.00000000       0.00000000 </v>
   <v>       0.00000000       0.00000000       0.00000000 </v>
   <v>       0.00000000       0.00000000       0.00000000 </v>
   <v>       0.00000000       0.00000000       0.00000000 </v>
   <v>       0.00000000       0.00000000       0.00000000 </v>
   <v>       0.00000000       0.00000000       0.00000000 </v>
   <v>       0.00000000       0.00000000       0.00000000 </v>
   <v>       0.00000000       0.00000000       0.00000000 </v>
   <v>       0.00000000       0.00000000       0.00000000 </v>
   <v>       0.00000000       0.00000000       0.00000000 </v>
   <v>       0.00000000       0.00000000       0.00000000 </v>
   <v>       0.00000000       0.00000000       0.00000000 </v>
   <v>       0.00000000       0.00000000       0.00000000 </v>
   <v>       0.00000000       0.00000000       0.00000000 </v>
   <v>       0.00000000       0.00000000       0.00000000 </v>
  </varray>
 </structure>
 <calculation>
  <scstep>
   <time name="dav">  164.64  165.12</time>
   <time name="total">  165.57  166.08</time>
   <energy>
    <i name="alphaZ">     76.07398680 </i>
    <i name="ewald"> 211456.34377278 </i>
    <i name="hartreedc">-217931.70648985 </i>
    <i name="XCdc">    829.36208949 </i>
    <i name="pawpsdc">   6720.41546902 </i>
    <i name="pawaedc">  -6755.16969339 </i>
    <i name="eentropy">      0.00000000 </i>
    <i name="bandstr">   -598.76708124 </i>
    <i name="atom">   9123.59704331 </i>
    <i name="e_fr_energy">   2920.14909692 </i>
    <i name="e_wo_entrp">   2920.14909692 </i>
    <i name="e_0_energy">   2920.14909692 </i>
   </energy>
  </scstep>
  <scstep>
   <time name="dav">  245.92  246.53</time>
   <time name="total">  245.95  246.56</time>
   <energy>
    <i name="e_fr_energy">     85.98207581 </i>
    <i name="e_wo_entrp">     85.98207581 </i>
    <i name="e_0_energy">     85.98207581 </i>
   </energy>
  </scstep>
  <scstep>
   <time name="dav">  205.65  206.15</time>
   <time name="total">  205.65  206.15</time>
   <energy>
    <i name="e_fr_energy">   -544.24693406 </i>
    <i name="e_wo_entrp">   -544.24693406 </i>
    <i name="e_0_energy">   -544.24693406 </i>
   </energy>
  </scstep>
  <scstep>
   <time name="dav">  204.81  205.55</time>
   <time name="total">  204.81  205.56</time>
   <energy>
    <i name="e_fr_energy">   -571.13944485 </i>
    <i name="e_wo_entrp">   -571.13944485 </i>
    <i name="e_0_energy">   -571.13944485 </i>
   </energy>
  </scstep>
  <scstep>
   <time name="dav">  216.53  217.07</time>
   <time name="total">  224.06  224.63</time>
   <energy>
    <i name="e_fr_energy">   -571.84454117 </i>
    <i name="e_wo_entrp">   -571.84454117 </i>
    <i name="e_0_energy">   -571.84454117 </i>
   </energy>
  </scstep>
  <scstep>
   <time name="dav">  189.39  189.86</time>
   <time name="total">  197.84  198.35</time>
   <energy>
    <i name="e_fr_energy">   -403.18704052 </i>
    <i name="e_wo_entrp">   -403.18704052 </i>
    <i name="e_0_energy">   -403.18704052 </i>
   </energy>
  </scstep>
  <scstep>
   <time name="dav">  192.47  192.95</time>
   <time name="total">  200.75  201.26</time>
   <energy>
    <i name="e_fr_energy">   -422.65109289 </i>
    <i name="e_wo_entrp">   -422.65109289 </i>
    <i name="e_0_energy">   -422.65109289 </i>
   </energy>
  </scstep>
  <scstep>
   <time name="dav">  187.38  187.85</time>
   <time name="total">  195.94  196.44</time>
   <energy>
    <i name="e_fr_energy">   -432.93283266 </i>
    <i name="e_wo_entrp">   -432.93283266 </i>
    <i name="e_0_energy">   -432.93283266 </i>
   </energy>
  </scstep>
  <scstep>
   <time name="dav">  184.36  184.80</time>
   <time name="total">  192.65  193.33</time>
   <energy>
    <i name="e_fr_energy">   -448.71498505 </i>
    <i name="e_wo_entrp">   -448.71498505 </i>
    <i name="e_0_energy">   -448.71498505 </i>
   </energy>
  </scstep>
  <scstep>
   <time name="dav">  180.57  181.01</time>
   <time name="total">  188.83  189.29</time>
   <energy>
    <i name="e_fr_energy">   -485.79233577 </i>
    <i name="e_wo_entrp">   -485.79233577 </i>
    <i name="e_0_energy">   -485.79233577 </i>
   </energy>
  </scstep>
  <scstep>
   <time name="dav">  182.62  183.06</time>
   <time name="total">  191.09  191.56</time>
   <energy>
    <i name="e_fr_energy">   -514.37319825 </i>
    <i name="e_wo_entrp">   -514.37319825 </i>
    <i name="e_0_energy">   -514.37319825 </i>
   </energy>
  </scstep>
  <scstep>
   <time name="dav">  174.66  175.19</time>
   <time name="total">  182.99  183.55</time>
   <energy>
    <i name="e_fr_energy">   -540.37567064 </i>
    <i name="e_wo_entrp">   -540.37567064 </i>
    <i name="e_0_energy">   -540.37567064 </i>
   </energy>
  </scstep>
  <scstep>
   <time name="dav">  183.31  184.05</time>
   <time name="total">  191.64  192.40</time>
   <energy>
    <i name="e_fr_energy">   -549.20095865 </i>
    <i name="e_wo_entrp">   -549.20095865 </i>
    <i name="e_0_energy">   -549.20095865 </i>
   </energy>
  </scstep>
  <scstep>
   <time name="dav">  178.27  178.97</time>
   <time name="total">  186.58  187.30</time>
   <energy>
    <i name="e_fr_energy">   -552.24488402 </i>
    <i name="e_wo_entrp">   -552.24488402 </i>
    <i name="e_0_energy">   -552.24488402 </i>
   </energy>
  </scstep>
  <scstep>
   <time name="dav">  181.23  181.94</time>
   <time name="total">  189.62  190.36</time>
   <energy>
    <i name="e_fr_energy">   -553.58720974 </i>
    <i name="e_wo_entrp">   -553.58720974 </i>
    <i name="e_0_energy">   -553.58720974 </i>
   </energy>
  </scstep>
  <scstep>
   <time name="dav">  175.82  176.52</time>
   <time name="total">  184.13  184.88</time>
   <energy>
    <i name="e_fr_energy">   -554.49498977 </i>
    <i name="e_wo_entrp">   -554.49498977 </i>
    <i name="e_0_energy">   -554.49498977 </i>
   </energy>
  </scstep>
  <scstep>
   <time name="dav">  183.60  184.32</time>
   <time name="total">  192.12  192.88</time>
   <energy>
    <i name="e_fr_energy">   -554.86087318 </i>
    <i name="e_wo_entrp">   -554.86087318 </i>
    <i name="e_0_energy">   -554.86087318 </i>
   </energy>
  </scstep>
  <scstep>
   <time name="dav">  177.79  178.49</time>
   <time name="total">  186.09  186.82</time>
   <energy>
    <i name="e_fr_energy">   -554.70986915 </i>
    <i name="e_wo_entrp">   -554.70986915 </i>
    <i name="e_0_energy">   -554.70986915 </i>
   </energy>
  </scstep>
  <scstep>
   <time name="dav">  186.79  187.52</time>
   <time name="total">  195.10  195.85</time>
   <energy>
    <i name="e_fr_energy">   -557.79931768 </i>
    <i name="e_wo_entrp">   -557.79931768 </i>
    <i name="e_0_energy">   -557.79931768 </i>
   </energy>
  </scstep>
  <scstep>
   <time name="dav">  173.36  173.88</time>
   <time name="total">  181.52  182.07</time>
   <energy>
    <i name="e_fr_energy">   -557.42636896 </i>
    <i name="e_wo_entrp">   -557.42636896 </i>
    <i name="e_0_energy">   -557.42636896 </i>
   </energy>
  </scstep>
  <scstep>
   <time name="dav">  173.01  173.49</time>
   <time name="total">  181.12  181.62</time>
   <energy>
    <i name="e_fr_energy">   -557.35254299 </i>
    <i name="e_wo_entrp">   -557.35254299 </i>
    <i name="e_0_energy">   -557.35254299 </i>
   </energy>
  </scstep>
  <scstep>
   <time name="dav">  172.61  173.09</time>
   <time name="total">  180.73  181.24</time>
   <energy>
    <i name="e_fr_energy">   -557.69601102 </i>
    <i name="e_wo_entrp">   -557.69601102 </i>
    <i name="e_0_energy">   -557.69601102 </i>
   </energy>
  </scstep>
  <scstep>
   <time name="dav">  178.50  178.97</time>
   <time name="total">  186.62  187.13</time>
   <energy>
    <i name="e_fr_energy">   -557.99220007 </i>
    <i name="e_wo_entrp">   -557.99220007 </i>
    <i name="e_0_energy">   -557.99220007 </i>
   </energy>
  </scstep>
  <scstep>
   <time name="dav">  175.01  175.49</time>
   <time name="total">  183.13  183.64</time>
   <energy>
    <i name="e_fr_energy">   -558.09186694 </i>
    <i name="e_wo_entrp">   -558.09186694 </i>
    <i name="e_0_energy">   -558.09186694 </i>
   </energy>
  </scstep>
  <scstep>
   <time name="dav">  170.41  170.87</time>
   <time name="total">  178.50  179.00</time>
   <energy>
    <i name="e_fr_energy">   -558.14406657 </i>
    <i name="e_wo_entrp">   -558.14406657 </i>
    <i name="e_0_energy">   -558.14406657 </i>
   </energy>
  </scstep>
  <scstep>
   <time name="dav">  171.25  171.70</time>
   <time name="total">  179.37  179.87</time>
   <energy>
    <i name="e_fr_energy">   -558.15252991 </i>
    <i name="e_wo_entrp">   -558.15252991 </i>
    <i name="e_0_energy">   -558.15252991 </i>
   </energy>
  </scstep>
  <scstep>
   <time name="dav">  171.19  171.64</time>
   <time name="total">  179.27  179.75</time>
   <energy>
    <i name="e_fr_energy">   -558.15708978 </i>
    <i name="e_wo_entrp">   -558.15708978 </i>
    <i name="e_0_energy">   -558.15708978 </i>
   </energy>
  </scstep>
  <scstep>
   <time name="dav">  186.18  186.68</time>
   <time name="total">  194.24  194.77</time>
   <energy>
    <i name="e_fr_energy">   -558.15751387 </i>
    <i name="e_wo_entrp">   -558.15751387 </i>
    <i name="e_0_energy">   -558.15751387 </i>
   </energy>
  </scstep>
  <scstep>
   <time name="dav">  167.83  168.27</time>
   <time name="total">  175.91  176.38</time>
   <energy>
    <i name="e_fr_energy">   -558.15811790 </i>
    <i name="e_wo_entrp">   -558.15811790 </i>
    <i name="e_0_energy">   -558.15811790 </i>
   </energy>
  </scstep>
  <scstep>
   <time name="dav">  173.41  173.87</time>
   <time name="total">  181.48  181.97</time>
   <energy>
    <i name="e_fr_energy">   -558.15813869 </i>
    <i name="e_wo_entrp">   -558.15813869 </i>
    <i name="e_0_energy">   -558.15813869 </i>
   </energy>
  </scstep>
  <scstep>
   <time name="dav">  168.52  168.96</time>
   <time name="total">  176.93  177.40</time>
   <energy>
    <i name="e_fr_energy">   -558.16013535 </i>
    <i name="e_wo_entrp">   -558.16013535 </i>
    <i name="e_0_energy">   -558.16013535 </i>
   </energy>
  </scstep>
  <scstep>
   <time name="dav">  169.78  170.22</time>
   <time name="total">  177.91  178.39</time>
   <energy>
    <i name="e_fr_energy">   -558.16455589 </i>
    <i name="e_wo_entrp">   -558.16455589 </i>
    <i name="e_0_energy">   -558.16455589 </i>
   </energy>
  </scstep>
  <scstep>
   <time name="dav">  175.42  175.89</time>
   <time name="total">  183.52  184.02</time>
   <energy>
    <i name="e_fr_energy">   -558.16702480 </i>
    <i name="e_wo_entrp">   -558.16702480 </i>
    <i name="e_0_energy">   -558.16702480 </i>
   </energy>
  </scstep>
  <scstep>
   <time name="dav">  174.67  175.13</time>
   <time name="total">  182.77  183.25</time>
   <energy>
    <i name="e_fr_energy">   -558.16762191 </i>
    <i name="e_wo_entrp">   -558.16762191 </i>
    <i name="e_0_energy">   -558.16762191 </i>
   </energy>
  </scstep>
  <scstep>
   <time name="dav">  168.50  168.95</time>
   <time name="total">  176.59  177.06</time>
   <energy>
    <i name="e_fr_energy">   -558.16822681 </i>
    <i name="e_wo_entrp">   -558.16822681 </i>
    <i name="e_0_energy">   -558.16822681 </i>
   </energy>
  </scstep>
  <scstep>
   <time name="dav">  173.45  173.91</time>
   <time name="total">  181.55  182.03</time>
   <energy>
    <i name="e_fr_energy">   -558.16863093 </i>
    <i name="e_wo_entrp">   -558.16863093 </i>
    <i name="e_0_energy">   -558.16863093 </i>
   </energy>
  </scstep>
  <scstep>
   <time name="dav">  175.17  175.63</time>
   <time name="total">  183.42  183.92</time>
   <energy>
    <i name="e_fr_energy">   -558.16878003 </i>
    <i name="e_wo_entrp">   -558.16878003 </i>
    <i name="e_0_energy">   -558.16878003 </i>
   </energy>
  </scstep>
  <scstep>
   <time name="dav">  169.65  170.10</time>
   <time name="total">  178.19  178.67</time>
   <energy>
    <i name="e_fr_energy">   -558.16893709 </i>
    <i name="e_wo_entrp">   -558.16893709 </i>
    <i name="e_0_energy">   -558.16893709 </i>
   </energy>
  </scstep>
  <scstep>
   <time name="dav">  174.13  174.54</time>
   <time name="total">  182.73  183.17</time>
   <energy>
    <i name="e_fr_energy">   -558.16901887 </i>
    <i name="e_wo_entrp">   -558.16901887 </i>
    <i name="e_0_energy">   -558.16901887 </i>
   </energy>
  </scstep>
  <scstep>
   <time name="dav">  170.97  171.37</time>
   <time name="total">  179.47  179.90</time>
   <energy>
    <i name="e_fr_energy">   -558.16904792 </i>
    <i name="e_wo_entrp">   -558.16904792 </i>
    <i name="e_0_energy">   -558.16904792 </i>
   </energy>
  </scstep>
  <scstep>
   <time name="dav">  164.26  164.68</time>
   <time name="total">  172.51  172.98</time>
   <energy>
    <i name="e_fr_energy">   -558.16906885 </i>
    <i name="e_wo_entrp">   -558.16906885 </i>
    <i name="e_0_energy">   -558.16906885 </i>
   </energy>
  </scstep>
  <scstep>
   <time name="dav">  152.30  152.66</time>
   <time name="total">  160.59  160.98</time>
   <energy>
    <i name="e_fr_energy">   -558.16907576 </i>
    <i name="e_wo_entrp">   -558.16907576 </i>
    <i name="e_0_energy">   -558.16907576 </i>
   </energy>
  </scstep>
  <scstep>
   <time name="dav">  147.26  147.61</time>
   <time name="total">  155.54  155.91</time>
   <energy>
    <i name="e_fr_energy">   -558.16908125 </i>
    <i name="e_wo_entrp">   -558.16908125 </i>
    <i name="e_0_energy">   -558.16908125 </i>
   </energy>
  </scstep>
  <scstep>
   <time name="dav">  140.70  141.03</time>
   <time name="total">  148.99  149.35</time>
   <energy>
    <i name="e_fr_energy">   -558.16908558 </i>
    <i name="e_wo_entrp">   -558.16908558 </i>
    <i name="e_0_energy">   -558.16908558 </i>
   </energy>
  </scstep>
  <scstep>
   <time name="dav">  134.78  135.10</time>
   <time name="total">  143.08  143.43</time>
   <energy>
    <i name="e_fr_energy">   -558.16908797 </i>
    <i name="e_wo_entrp">   -558.16908797 </i>
    <i name="e_0_energy">   -558.16908797 </i>
   </energy>
  </scstep>
  <scstep>
   <time name="dav">  135.81  136.14</time>
   <time name="total">  144.29  144.64</time>
   <energy>
    <i name="e_fr_energy">   -558.16908941 </i>
    <i name="e_wo_entrp">   -558.16908941 </i>
    <i name="e_0_energy">   -558.16908941 </i>
   </energy>
  </scstep>
  <scstep>
   <time name="dav">  137.74  138.07</time>
   <time name="total">  146.03  146.39</time>
   <energy>
    <i name="e_fr_energy">   -558.16909008 </i>
    <i name="e_wo_entrp">   -558.16909008 </i>
    <i name="e_0_energy">   -558.16909008 </i>
   </energy>
  </scstep>
  <scstep>
   <time name="dav">  136.30  136.62</time>
   <time name="total">  144.64  144.99</time>
   <energy>
    <i name="e_fr_energy">   -558.16909037 </i>
    <i name="e_wo_entrp">   -558.16909037 </i>
    <i name="e_0_energy">   -558.16909037 </i>
   </energy>
  </scstep>
  <scstep>
   <time name="dav">  131.64  132.04</time>
   <time name="total">  139.80  140.23</time>
   <energy>
    <i name="e_fr_energy">   -558.16909048 </i>
    <i name="e_wo_entrp">   -558.16909048 </i>
    <i name="e_0_energy">   -558.16909048 </i>
   </energy>
  </scstep>
  <scstep>
   <time name="dav">  131.07  131.42</time>
   <time name="total">  131.92  132.27</time>
   <energy>
    <i name="alphaZ">     76.07398680 </i>
    <i name="ewald"> 211456.34377278 </i>
    <i name="hartreedc">-218973.87612945 </i>
    <i name="XCdc">    853.51988246 </i>
    <i name="pawpsdc">  25608.12685302 </i>
    <i name="pawaedc"> -25650.13880887 </i>
    <i name="eentropy">      0.00000000 </i>
    <i name="bandstr">  -3051.81569060 </i>
    <i name="atom">   9123.59704331 </i>
    <i name="e_fr_energy">   -558.16909056 </i>
    <i name="e_wo_entrp">   -558.16909056 </i>
    <i name="e_0_energy">   -558.16909056 </i>
   </energy>
  </scstep>
  <structure>
   <crystal>
    <varray name="basis" >
     <v>       9.79547248      -0.00333527      -0.00000053 </v>
     <v>       4.90145290       8.48156207       0.00000839 </v>
     <v>      -0.00000267       0.00005124      49.95175233 </v>
    </varray>
    <i name="volume">   4150.85352548 </i>
    <varray name="rec_basis" >
     <v>       0.10206790      -0.05898453       0.00000007 </v>
     <v>       0.00004014       0.11787961      -0.00000012 </v>
     <v>       0.00000000      -0.00000002       0.02001932 </v>
    </varray>
   </crystal>
   <varray name="positions" >
    <v>       0.00037109       0.00032523       0.45751524 </v>
    <v>       0.08342726       0.08340273       0.45628254 </v>
    <v>       0.00037250       0.00032877       0.38248712 </v>
    <v>       0.08343042       0.08340672       0.38372384 </v>
    <v>       0.99854131       0.25059044       0.45537546 </v>
    <v>       0.08342018       0.33290984       0.45627529 </v>
    <v>       0.99854133       0.25059576       0.38463039 </v>
    <v>       0.08342335       0.33290960       0.38373052 </v>
    <v>       0.00038317       0.49901811       0.45750420 </v>
    <v>       0.08429182       0.58271153       0.45592849 </v>
    <v>       0.00038331       0.49902457       0.38249720 </v>
    <v>       0.08429223       0.58271391       0.38406972 </v>
    <v>       0.00008844       0.74981718       0.45722149 </v>
    <v>       0.08429782       0.83273458       0.45593609 </v>
    <v>       0.00009383       0.74982104       0.38277594 </v>
    <v>       0.08429768       0.83273928       0.38406292 </v>
    <v>       0.25060881       0.99853024       0.45536224 </v>
    <v>       0.33293573       0.08339591       0.45626146 </v>
    <v>       0.25061222       0.99853280       0.38464318 </v>
    <v>       0.33293176       0.08340155       0.38374391 </v>
    <v>       0.25060779       0.25057965       0.45535688 </v>
    <v>       0.33378343       0.33373846       0.44964417 </v>
    <v>       0.25061016       0.25058240       0.38464824 </v>
    <v>       0.33378356       0.33374044       0.39035558 </v>
    <v>       0.24574330       0.50142030       0.44800330 </v>
    <v>       0.29315471       0.60329186       0.43433977 </v>
    <v>       0.24574884       0.50142386       0.39199446 </v>
    <v>       0.29315909       0.60329155       0.40565753 </v>
    <v>       0.24575157       0.75255022       0.44800833 </v>
    <v>       0.33379291       0.83219732       0.44965051 </v>
    <v>       0.24575836       0.75254918       0.39199006 </v>
    <v>       0.33379421       0.83220201       0.39034973 </v>
    <v>       0.49905605       0.00034054       0.45748629 </v>
    <v>       0.58275880       0.08422018       0.45591358 </v>
    <v>       0.49906205       0.00034232       0.38251443 </v>
    <v>       0.58275933       0.08422237       0.38408419 </v>
    <v>       0.50146878       0.24566623       0.44799811 </v>
    <v>       0.60335032       0.29307678       0.43433764 </v>
    <v>       0.50147186       0.24567229       0.39199976 </v>
    <v>       0.60334934       0.29308106       0.40566003 </v>
    <v>       0.60335444       0.60331545       0.43433686 </v>
    <v>       0.60335576       0.60331739       0.40566065 </v>
    <v>       0.50147554       0.75259461       0.44800005 </v>
    <v>       0.58275836       0.83276000       0.45591122 </v>
    <v>       0.50147971       0.75259436       0.39199825 </v>
    <v>       0.58276017       0.83276599       0.38408680 </v>
    <v>       0.74987699       0.00001575       0.45721126 </v>
    <v>       0.83278583       0.08423183       0.45593436 </v>
    <v>       0.74987824       0.00002454       0.38278580 </v>
    <v>       0.83278871       0.08423304       0.38406461 </v>
    <v>       0.75259051       0.24569769       0.44801454 </v>
    <v>       0.83219577       0.33377070       0.44966559 </v>
    <v>       0.75258855       0.24570592       0.39198427 </v>
    <v>       0.83220005       0.33377243       0.39033521 </v>
    <v>       0.75260648       0.50144134       0.44801139 </v>
    <v>       0.83278609       0.58272674       0.45592432 </v>
    <v>       0.75260479       0.50144689       0.39198728 </v>
    <v>       0.83279150       0.58272984       0.38407417 </v>
    <v>       0.74989578       0.74984738       0.45720431 </v>
    <v>       0.83328610       0.83322285       0.45844632 </v>
    <v>       0.74989674       0.74985098       0.38279248 </v>
    <v>       0.83328861       0.83322554       0.38155043 </v>
   </varray>
  </structure>
  <varray name="forces" >
   <v>       0.00085534      -0.00143599       0.00029127 </v>
   <v>       0.00145912       0.00264476       0.00263209 </v>
   <v>       0.00213511      -0.00091658      -0.00059123 </v>
   <v>       0.00019627       0.00237857      -0.00310964 </v>
   <v>      -0.00276883       0.00552740      -0.00166065 </v>
   <v>      -0.00208699      -0.01371501       0.00278102 </v>
   <v>      -0.00063306       0.00324696       0.00087805 </v>
   <v>      -0.00195369      -0.01075590      -0.00330258 </v>
   <v>       0.00063110       0.01398351       0.00121995 </v>
   <v>      -0.01393831      -0.00280742       0.00626857 </v>
   <v>       0.00107906       0.01058132      -0.00147912 </v>
   <v>      -0.01155789      -0.00215219      -0.00587105 </v>
   <v>      -0.00151837       0.00708226       0.00605467 </v>
   <v>      -0.01146596       0.00459813       0.00550185 </v>
   <v>      -0.00383643       0.00662568      -0.00619050 </v>
   <v>      -0.00926565       0.00368915      -0.00511521 </v>
   <v>       0.00528294      -0.00787965      -0.00053790 </v>
   <v>      -0.01126906       0.00481987       0.00380583 </v>
   <v>       0.00413617      -0.00570029      -0.00013304 </v>
   <v>      -0.00711447       0.00279224      -0.00435889 </v>
   <v>       0.01009919       0.00480642      -0.00067456 </v>
   <v>      -0.00988422      -0.00769776      -0.00603865 </v>
   <v>       0.00768320       0.00412639      -0.00008850 </v>
   <v>      -0.00711788      -0.00657531       0.00696954 </v>
   <v>       0.00850507      -0.00255336      -0.00148725 </v>
   <v>       0.01549582      -0.01086277      -0.05154659 </v>
   <v>       0.00641961      -0.00332803       0.00084929 </v>
   <v>       0.01589513      -0.01058903       0.05249796 </v>
   <v>       0.00920674      -0.00096404      -0.00051578 </v>
   <v>      -0.00032256       0.00995258      -0.00750779 </v>
   <v>       0.00813867       0.00055757       0.00001844 </v>
   <v>       0.00030062       0.00739816       0.00835367 </v>
   <v>       0.00896618      -0.00579337       0.00249053 </v>
   <v>      -0.00580442      -0.01083882       0.00774007 </v>
   <v>       0.00499285      -0.00367592      -0.00262944 </v>
   <v>      -0.00385770      -0.00894671      -0.00727428 </v>
   <v>      -0.00008299       0.01235178      -0.00116098 </v>
   <v>      -0.00009286       0.01991786      -0.04972987 </v>
   <v>      -0.00212808       0.01128529       0.00050734 </v>
   <v>       0.00059598       0.02013663       0.05057486 </v>
   <v>      -0.01745270      -0.01181583      -0.05152716 </v>
   <v>      -0.01761850      -0.01178243       0.05237935 </v>
   <v>      -0.01165350      -0.00383741      -0.00049636 </v>
   <v>       0.01112472       0.00877186       0.00835840 </v>
   <v>      -0.01150586      -0.00198627      -0.00005480 </v>
   <v>       0.01020297       0.00674878      -0.00793305 </v>
   <v>       0.00362827      -0.00418681       0.00710963 </v>
   <v>      -0.00235685      -0.00976735       0.00538478 </v>
   <v>       0.00219908      -0.00717079      -0.00725749 </v>
   <v>      -0.00189360      -0.00690406      -0.00487717 </v>
   <v>       0.00285509       0.00943776      -0.00207015 </v>
   <v>       0.01108491      -0.00813254      -0.00875970 </v>
   <v>       0.00335820       0.00742362       0.00147248 </v>
   <v>       0.00895370      -0.00589881       0.00965707 </v>
   <v>      -0.00851776      -0.00462108      -0.00234495 </v>
   <v>       0.01300334       0.00054641       0.00685538 </v>
   <v>      -0.00652582      -0.00561585       0.00162769 </v>
   <v>       0.01014027       0.00109909      -0.00640996 </v>
   <v>      -0.00553503      -0.00048752       0.00694913 </v>
   <v>       0.00250248       0.00300145       0.01088461 </v>
   <v>      -0.00453022      -0.00051137      -0.00688477 </v>
   <v>       0.00316210       0.00437471      -0.01049446 </v>
  </varray>
  <varray name="stress" >
   <v>      -0.05293368      -0.02148203       0.00016991 </v>
   <v>      -0.02148194      -0.04502604       0.00020679 </v>
   <v>       0.00016992       0.00020679      -0.14654958 </v>
  </varray>
  <energy>
   <i name="e_fr_energy">   -565.19737078 </i>
   <i name="e_wo_entrp">   -565.19737078 </i>
   <i name="e_0_energy">      0.00000000 </i>
  </energy>
  <time name="totalsc"> 9309.40 9336.21</time>
  <eigenvalues>
   <array>
    <dimension dim="1">band</dimension>
    <dimension dim="2">kpoint</dimension>
    <dimension dim="3">spin</dimension>
    <field>eigene</field>
    <field>occ</field>
    <set>
     <set comment="spin 1">
      <set comment="kpoint 1">
       <r>  -22.8832    1.0000 </r>
       <r>  -22.5290    1.0000 </r>
       <r>  -21.8185    1.0000 </r>
       <r>  -21.8176    1.0000 </r>
       <r>  -21.3757    1.0000 </r>
       <r>  -21.3755    1.0000 </r>
       <r>  -21.3451    1.0000 </r>
       <r>  -21.2413    1.0000 </r>
       <r>  -21.2410    1.0000 </r>
       <r>  -21.2209    1.0000 </r>
       <r>  -20.9932    1.0000 </r>
       <r>  -20.9544    1.0000 </r>
       <r>  -20.9542    1.0000 </r>
       <r>  -19.7935    1.0000 </r>
       <r>  -19.2026    1.0000 </r>
       <r>  -19.2024    1.0000 </r>
       <r>  -18.6990    1.0000 </r>
       <r>  -18.4460    1.0000 </r>
       <r>  -18.4458    1.0000 </r>
       <r>  -18.3689    1.0000 </r>
       <r>  -18.3129    1.0000 </r>
       <r>  -18.3123    1.0000 </r>
       <r>  -18.0481    1.0000 </r>
       <r>  -17.9976    1.0000 </r>
       <r>  -17.9971    1.0000 </r>
       <r>  -17.7934    1.0000 </r>
       <r>  -17.7931    1.0000 </r>
       <r>  -17.7442    1.0000 </r>
       <r>  -17.5296    1.0000 </r>
       <r>  -17.1135    1.0000 </r>
       <r>  -17.1131    1.0000 </r>
       <r>  -16.6421    1.0000 </r>
       <r>  -16.4723    1.0000 </r>
       <r>  -16.4720    1.0000 </r>
       <r>  -15.8564    1.0000 </r>
       <r>  -15.7742    1.0000 </r>
       <r>  -15.7740    1.0000 </r>
       <r>  -14.5588    1.0000 </r>
       <r>  -14.4832    1.0000 </r>
       <r>  -14.4831    1.0000 </r>
       <r>  -14.1176    1.0000 </r>
       <r>  -13.8786    1.0000 </r>
       <r>  -13.8782    1.0000 </r>
       <r>  -13.6535    1.0000 </r>
       <r>  -13.6529    1.0000 </r>
       <r>  -13.4291    1.0000 </r>
       <r>  -13.2149    1.0000 </r>
       <r>  -13.2141    1.0000 </r>
       <r>  -12.7473    1.0000 </r>
       <r>  -12.4677    1.0000 </r>
       <r>  -12.4102    1.0000 </r>
       <r>  -12.4032    1.0000 </r>
       <r>  -12.4028    1.0000 </r>
       <r>  -12.2315    1.0000 </r>
       <r>  -12.0550    1.0000 </r>
       <r>  -11.9751    1.0000 </r>
       <r>  -11.9747    1.0000 </r>
       <r>  -11.9289    1.0000 </r>
       <r>  -11.9287    1.0000 </r>
       <r>  -11.3931    1.0000 </r>
       <r>  -11.3928    1.0000 </r>
       <r>  -11.3337    1.0000 </r>
       <r>  -11.2910    1.0000 </r>
       <r>  -11.2905    1.0000 </r>
       <r>  -11.0548    1.0000 </r>
       <r>  -10.9483    1.0000 </r>
       <r>  -10.9472    1.0000 </r>
       <r>  -10.8348    1.0000 </r>
       <r>  -10.4417    1.0000 </r>
       <r>  -10.2475    1.0000 </r>
       <r>  -10.2472    1.0000 </r>
       <r>  -10.0928    1.0000 </r>
       <r>  -10.0924    1.0000 </r>
       <r>  -10.0592    1.0000 </r>
       <r>  -10.0378    1.0000 </r>
       <r>  -10.0376    1.0000 </r>
       <r>   -9.9022    1.0000 </r>
       <r>   -9.8985    1.0000 </r>
       <r>   -9.5394    1.0000 </r>
       <r>   -9.5388    1.0000 </r>
       <r>   -9.3108    1.0000 </r>
       <r>   -9.2932    1.0000 </r>
       <r>   -9.2927    1.0000 </r>
       <r>   -9.1922    1.0000 </r>
       <r>   -8.9400    1.0000 </r>
       <r>   -8.9399    1.0000 </r>
       <r>   -8.7423    1.0000 </r>
       <r>   -8.7288    1.0000 </r>
       <r>   -8.7287    1.0000 </r>
       <r>   -8.7151    1.0000 </r>
       <r>   -8.7147    1.0000 </r>
       <r>   -8.7143    1.0000 </r>
       <r>   -8.5245    1.0000 </r>
       <r>   -8.5242    1.0000 </r>
       <r>   -8.4750    1.0000 </r>
       <r>   -8.3056    1.0000 </r>
       <r>   -8.2121    1.0000 </r>
       <r>   -8.0829    1.0000 </r>
       <r>   -8.0821    1.0000 </r>
       <r>   -7.8803    1.0000 </r>
       <r>   -7.5855    1.0000 </r>
       <r>   -7.5851    1.0000 </r>
       <r>   -6.9304    1.0000 </r>
       <r>   -6.9300    1.0000 </r>
       <r>   -6.7244    1.0000 </r>
       <r>   -6.4957    1.0000 </r>
       <r>   -6.4950    1.0000 </r>
       <r>   -6.2051    1.0000 </r>
       <r>   -6.0427    1.0000 </r>
       <r>   -6.0426    1.0000 </r>
       <r>   -5.9573    1.0000 </r>
       <r>   -5.8573    1.0000 </r>
       <r>   -5.8565    1.0000 </r>
       <r>   -5.8454    1.0000 </r>
       <r>   -5.3929    1.0000 </r>
       <r>   -5.3928    1.0000 </r>
       <r>   -5.3709    1.0000 </r>
       <r>   -5.3700    1.0000 </r>
       <r>   -5.3506    1.0000 </r>
       <r>   -5.1762    1.0000 </r>
       <r>   -5.1635    1.0000 </r>
       <r>   -5.1629    1.0000 </r>
       <r>   -3.6803    1.0000 </r>
       <r>   -3.6798    1.0000 </r>
       <r>   -2.9594    0.0000 </r>
       <r>   -2.8878    0.0000 </r>
       <r>   -2.8867    0.0000 </r>
       <r>   -1.5654    0.0000 </r>
       <r>   -1.5649    0.0000 </r>
       <r>   -1.3677    0.0000 </r>
       <r>   -0.9142    0.0000 </r>
       <r>   -0.9137    0.0000 </r>
       <r>   -0.8847    0.0000 </r>
       <r>   -0.7938    0.0000 </r>
       <r>   -0.7405    0.0000 </r>
       <r>   -0.7394    0.0000 </r>
       <r>   -0.4252    0.0000 </r>
       <r>   -0.4251    0.0000 </r>
       <r>   -0.1907    0.0000 </r>
       <r>   -0.0538    0.0000 </r>
       <r>   -0.0532    0.0000 </r>
       <r>    0.0689    0.0000 </r>
       <r>    0.0744    0.0000 </r>
       <r>    0.3770    0.0000 </r>
       <r>    0.7078    0.0000 </r>
       <r>    1.2113    0.0000 </r>
       <r>    1.2992    0.0000 </r>
       <r>    1.3987    0.0000 </r>
       <r>    1.6005    0.0000 </r>
       <r>    1.7441    0.0000 </r>
       <r>    2.0579    0.0000 </r>
       <r>    2.2166    0.0000 </r>
       <r>    2.2618    0.0000 </r>
       <r>    2.2621    0.0000 </r>
       <r>    2.2892    0.0000 </r>
       <r>    2.3790    0.0000 </r>
       <r>    2.3799    0.0000 </r>
       <r>    2.4059    0.0000 </r>
       <r>    2.4063    0.0000 </r>
       <r>    2.4413    0.0000 </r>
       <r>    2.4416    0.0000 </r>
       <r>    2.4792    0.0000 </r>
       <r>    2.6415    0.0000 </r>
       <r>    2.7257    0.0000 </r>
       <r>    2.7427    0.0000 </r>
       <r>    2.7430    0.0000 </r>
       <r>    2.7688    0.0000 </r>
       <r>    2.7690    0.0000 </r>
       <r>    2.7812    0.0000 </r>
       <r>    2.7828    0.0000 </r>
       <r>    2.8451    0.0000 </r>
       <r>    2.8458    0.0000 </r>
       <r>    3.2757    0.0000 </r>
       <r>    3.3000    0.0000 </r>
       <r>    3.3004    0.0000 </r>
       <r>    3.3006    0.0000 </r>
       <r>    3.3016    0.0000 </r>
       <r>    3.3018    0.0000 </r>
       <r>    3.3031    0.0000 </r>
       <r>    3.3805    0.0000 </r>
       <r>    3.3848    0.0000 </r>
       <r>    3.3850    0.0000 </r>
       <r>    3.3889    0.0000 </r>
       <r>    3.3890    0.0000 </r>
       <r>    3.3892    0.0000 </r>
       <r>    3.4301    0.0000 </r>
       <r>    3.4563    0.0000 </r>
       <r>    3.4790    0.0000 </r>
       <r>    3.4795    0.0000 </r>
       <r>    3.4797    0.0000 </r>
       <r>    3.4907    0.0000 </r>
       <r>    3.4910    0.0000 </r>
      </set>
      <set comment="kpoint 2">
       <r>  -22.8279    1.0000 </r>
       <r>  -22.4785    1.0000 </r>
       <r>  -22.0399    1.0000 </r>
       <r>  -21.9023    1.0000 </r>
       <r>  -21.6543    1.0000 </r>
       <r>  -21.6100    1.0000 </r>
       <r>  -21.3640    1.0000 </r>
       <r>  -21.1887    1.0000 </r>
       <r>  -21.0652    1.0000 </r>
       <r>  -20.9202    1.0000 </r>
       <r>  -20.8019    1.0000 </r>
       <r>  -20.7189    1.0000 </r>
       <r>  -20.6480    1.0000 </r>
       <r>  -19.6693    1.0000 </r>
       <r>  -19.5895    1.0000 </r>
       <r>  -19.3819    1.0000 </r>
       <r>  -19.0537    1.0000 </r>
       <r>  -18.7436    1.0000 </r>
       <r>  -18.7172    1.0000 </r>
       <r>  -18.6773    1.0000 </r>
       <r>  -18.2019    1.0000 </r>
       <r>  -18.1211    1.0000 </r>
       <r>  -18.0927    1.0000 </r>
       <r>  -18.0822    1.0000 </r>
       <r>  -17.8465    1.0000 </r>
       <r>  -17.7452    1.0000 </r>
       <r>  -17.6945    1.0000 </r>
       <r>  -17.4737    1.0000 </r>
       <r>  -17.3221    1.0000 </r>
       <r>  -17.1765    1.0000 </r>
       <r>  -17.1761    1.0000 </r>
       <r>  -16.2813    1.0000 </r>
       <r>  -16.2765    1.0000 </r>
       <r>  -16.0347    1.0000 </r>
       <r>  -15.7283    1.0000 </r>
       <r>  -15.5555    1.0000 </r>
       <r>  -15.5166    1.0000 </r>
       <r>  -14.9810    1.0000 </r>
       <r>  -14.7008    1.0000 </r>
       <r>  -14.5335    1.0000 </r>
       <r>  -14.3972    1.0000 </r>
       <r>  -14.3876    1.0000 </r>
       <r>  -14.0350    1.0000 </r>
       <r>  -13.9947    1.0000 </r>
       <r>  -13.6861    1.0000 </r>
       <r>  -13.5149    1.0000 </r>
       <r>  -13.0429    1.0000 </r>
       <r>  -13.0204    1.0000 </r>
       <r>  -12.8648    1.0000 </r>
       <r>  -12.8362    1.0000 </r>
       <r>  -12.6671    1.0000 </r>
       <r>  -12.4986    1.0000 </r>
       <r>  -12.1657    1.0000 </r>
       <r>  -12.1207    1.0000 </r>
       <r>  -12.0459    1.0000 </r>
       <r>  -11.9707    1.0000 </r>
       <r>  -11.9181    1.0000 </r>
       <r>  -11.7207    1.0000 </r>
       <r>  -11.5063    1.0000 </r>
       <r>  -11.4797    1.0000 </r>
       <r>  -11.4335    1.0000 </r>
       <r>  -11.4109    1.0000 </r>
       <r>  -11.3135    1.0000 </r>
       <r>  -11.2957    1.0000 </r>
       <r>  -11.0602    1.0000 </r>
       <r>  -10.7971    1.0000 </r>
       <r>  -10.6626    1.0000 </r>
       <r>  -10.5259    1.0000 </r>
       <r>  -10.5256    1.0000 </r>
       <r>  -10.3763    1.0000 </r>
       <r>  -10.2968    1.0000 </r>
       <r>  -10.1643    1.0000 </r>
       <r>  -10.0665    1.0000 </r>
       <r>  -10.0370    1.0000 </r>
       <r>   -9.9571    1.0000 </r>
       <r>   -9.8622    1.0000 </r>
       <r>   -9.7841    1.0000 </r>
       <r>   -9.6230    1.0000 </r>
       <r>   -9.5519    1.0000 </r>
       <r>   -9.4311    1.0000 </r>
       <r>   -9.3626    1.0000 </r>
       <r>   -9.3022    1.0000 </r>
       <r>   -9.1743    1.0000 </r>
       <r>   -9.1445    1.0000 </r>
       <r>   -9.0383    1.0000 </r>
       <r>   -9.0061    1.0000 </r>
       <r>   -8.9117    1.0000 </r>
       <r>   -8.8889    1.0000 </r>
       <r>   -8.8601    1.0000 </r>
       <r>   -8.7574    1.0000 </r>
       <r>   -8.6874    1.0000 </r>
       <r>   -8.6087    1.0000 </r>
       <r>   -8.5579    1.0000 </r>
       <r>   -8.5119    1.0000 </r>
       <r>   -8.4024    1.0000 </r>
       <r>   -8.2407    1.0000 </r>
       <r>   -8.2182    1.0000 </r>
       <r>   -8.0198    1.0000 </r>
       <r>   -7.8518    1.0000 </r>
       <r>   -7.8170    1.0000 </r>
       <r>   -7.6891    1.0000 </r>
       <r>   -7.3910    1.0000 </r>
       <r>   -7.0913    1.0000 </r>
       <r>   -7.0742    1.0000 </r>
       <r>   -6.7529    1.0000 </r>
       <r>   -6.6199    1.0000 </r>
       <r>   -6.5893    1.0000 </r>
       <r>   -6.5515    1.0000 </r>
       <r>   -6.4769    1.0000 </r>
       <r>   -6.2178    1.0000 </r>
       <r>   -5.9744    1.0000 </r>
       <r>   -5.9385    1.0000 </r>
       <r>   -5.8715    1.0000 </r>
       <r>   -5.8640    1.0000 </r>
       <r>   -5.6073    1.0000 </r>
       <r>   -5.4514    1.0000 </r>
       <r>   -5.3652    1.0000 </r>
       <r>   -5.2744    1.0000 </r>
       <r>   -5.2478    1.0000 </r>
       <r>   -5.1753    1.0000 </r>
       <r>   -4.9824    1.0000 </r>
       <r>   -4.6290    1.0000 </r>
       <r>   -3.6431    1.0000 </r>
       <r>   -3.6055    1.0000 </r>
       <r>   -2.9383    0.0000 </r>
       <r>   -2.8697    0.0000 </r>
       <r>   -2.8526    0.0000 </r>
       <r>   -1.7480    0.0000 </r>
       <r>   -1.6906    0.0000 </r>
       <r>   -1.2607    0.0000 </r>
       <r>   -1.1953    0.0000 </r>
       <r>   -1.0603    0.0000 </r>
       <r>   -1.0059    0.0000 </r>
       <r>   -0.7813    0.0000 </r>
       <r>   -0.6571    0.0000 </r>
       <r>   -0.5341    0.0000 </r>
       <r>   -0.4475    0.0000 </r>
       <r>   -0.3325    0.0000 </r>
       <r>   -0.2377    0.0000 </r>
       <r>   -0.1093    0.0000 </r>
       <r>    0.0051    0.0000 </r>
       <r>    0.3346    0.0000 </r>
       <r>    0.4404    0.0000 </r>
       <r>    0.6288    0.0000 </r>
       <r>    0.7888    0.0000 </r>
       <r>    1.2948    0.0000 </r>
       <r>    1.3827    0.0000 </r>
       <r>    1.4819    0.0000 </r>
       <r>    1.6535    0.0000 </r>
       <r>    1.6834    0.0000 </r>
       <r>    1.8256    0.0000 </r>
       <r>    1.9217    0.0000 </r>
       <r>    1.9530    0.0000 </r>
       <r>    2.0117    0.0000 </r>
       <r>    2.1012    0.0000 </r>
       <r>    2.1300    0.0000 </r>
       <r>    2.1358    0.0000 </r>
       <r>    2.1803    0.0000 </r>
       <r>    2.2943    0.0000 </r>
       <r>    2.3022    0.0000 </r>
       <r>    2.4226    0.0000 </r>
       <r>    2.4339    0.0000 </r>
       <r>    2.5484    0.0000 </r>
       <r>    2.6066    0.0000 </r>
       <r>    2.6359    0.0000 </r>
       <r>    2.7355    0.0000 </r>
       <r>    2.7722    0.0000 </r>
       <r>    2.8185    0.0000 </r>
       <r>    2.8538    0.0000 </r>
       <r>    2.8833    0.0000 </r>
       <r>    2.9346    0.0000 </r>
       <r>    2.9665    0.0000 </r>
       <r>    2.9668    0.0000 </r>
       <r>    2.9984    0.0000 </r>
       <r>    3.0534    0.0000 </r>
       <r>    3.0540    0.0000 </r>
       <r>    3.0722    0.0000 </r>
       <r>    3.0756    0.0000 </r>
       <r>    3.1495    0.0000 </r>
       <r>    3.1539    0.0000 </r>
       <r>    3.2329    0.0000 </r>
       <r>    3.2488    0.0000 </r>
       <r>    3.3175    0.0000 </r>
       <r>    3.3484    0.0000 </r>
       <r>    3.3533    0.0000 </r>
       <r>    3.3940    0.0000 </r>
       <r>    3.4547    0.0000 </r>
       <r>    3.4945    0.0000 </r>
       <r>    3.5091    0.0000 </r>
       <r>    3.5316    0.0000 </r>
       <r>    3.5669    0.0000 </r>
       <r>    3.6701    0.0000 </r>
      </set>
      <set comment="kpoint 3">
       <r>  -22.6661    1.0000 </r>
       <r>  -22.3823    1.0000 </r>
       <r>  -22.3422    1.0000 </r>
       <r>  -21.9897    1.0000 </r>
       <r>  -21.9879    1.0000 </r>
       <r>  -21.6908    1.0000 </r>
       <r>  -21.4668    1.0000 </r>
       <r>  -21.0911    1.0000 </r>
       <r>  -20.8240    1.0000 </r>
       <r>  -20.6935    1.0000 </r>
       <r>  -20.2838    1.0000 </r>
       <r>  -20.2196    1.0000 </r>
       <r>  -20.1362    1.0000 </r>
       <r>  -20.1117    1.0000 </r>
       <r>  -19.7179    1.0000 </r>
       <r>  -19.7066    1.0000 </r>
       <r>  -19.5538    1.0000 </r>
       <r>  -19.2058    1.0000 </r>
       <r>  -19.0896    1.0000 </r>
       <r>  -18.6903    1.0000 </r>
       <r>  -18.4470    1.0000 </r>
       <r>  -18.3316    1.0000 </r>
       <r>  -18.1840    1.0000 </r>
       <r>  -18.0191    1.0000 </r>
       <r>  -18.0147    1.0000 </r>
       <r>  -17.9251    1.0000 </r>
       <r>  -17.4438    1.0000 </r>
       <r>  -17.0934    1.0000 </r>
       <r>  -16.8310    1.0000 </r>
       <r>  -16.7904    1.0000 </r>
       <r>  -16.5480    1.0000 </r>
       <r>  -15.9340    1.0000 </r>
       <r>  -15.9146    1.0000 </r>
       <r>  -15.7502    1.0000 </r>
       <r>  -15.5719    1.0000 </r>
       <r>  -15.3299    1.0000 </r>
       <r>  -15.2846    1.0000 </r>
       <r>  -15.1300    1.0000 </r>
       <r>  -15.0634    1.0000 </r>
       <r>  -14.9808    1.0000 </r>
       <r>  -14.9120    1.0000 </r>
       <r>  -14.8194    1.0000 </r>
       <r>  -14.3212    1.0000 </r>
       <r>  -14.2158    1.0000 </r>
       <r>  -14.0124    1.0000 </r>
       <r>  -13.4120    1.0000 </r>
       <r>  -13.2644    1.0000 </r>
       <r>  -13.1233    1.0000 </r>
       <r>  -12.8929    1.0000 </r>
       <r>  -12.8832    1.0000 </r>
       <r>  -12.6185    1.0000 </r>
       <r>  -12.6016    1.0000 </r>
       <r>  -12.5855    1.0000 </r>
       <r>  -12.4058    1.0000 </r>
       <r>  -12.2974    1.0000 </r>
       <r>  -12.0781    1.0000 </r>
       <r>  -11.9036    1.0000 </r>
       <r>  -11.6754    1.0000 </r>
       <r>  -11.3991    1.0000 </r>
       <r>  -11.2946    1.0000 </r>
       <r>  -11.2010    1.0000 </r>
       <r>  -10.8980    1.0000 </r>
       <r>  -10.8553    1.0000 </r>
       <r>  -10.8364    1.0000 </r>
       <r>  -10.8207    1.0000 </r>
       <r>  -10.6693    1.0000 </r>
       <r>  -10.4639    1.0000 </r>
       <r>  -10.3586    1.0000 </r>
       <r>  -10.3423    1.0000 </r>
       <r>  -10.2423    1.0000 </r>
       <r>  -10.1854    1.0000 </r>
[...]
       <r>   -17.5737     3.4405    26.1351 </r>
       <r>   -17.4760     3.0743    26.5826 </r>
       <r>   -17.3784     4.4615    26.9984 </r>
       <r>   -17.2807     3.9184    27.4095 </r>
       <r>   -17.1830     2.9525    27.8041 </r>
       <r>   -17.0854     8.1702    28.5165 </r>
       <r>   -16.9877     2.7820    28.9859 </r>
       <r>   -16.8900     3.1117    29.2722 </r>
       <r>   -16.7923     4.2826    29.6333 </r>
       <r>   -16.6947     3.7444    30.0755 </r>
       <r>   -16.5970     2.1185    30.4001 </r>
       <r>   -16.4993     3.0019    30.7127 </r>
       <r>   -16.4017     2.4979    30.9741 </r>
       <r>   -16.3040     1.8871    31.2117 </r>
       <r>   -16.2063     3.1206    31.5345 </r>
       <r>   -16.1087     4.4187    32.0771 </r>
       <r>   -16.0110     7.3725    32.5941 </r>
       <r>   -15.9133     0.8551    33.2048 </r>
       <r>   -15.8157     3.2899    33.3634 </r>
       <r>   -15.7180     6.6869    34.0843 </r>
       <r>   -15.6203     6.8714    34.7464 </r>
       <r>   -15.5227     4.8981    35.3902 </r>
       <r>   -15.4250     8.6253    36.1189 </r>
       <r>   -15.3273     7.4299    36.8928 </r>
       <r>   -15.2297     2.9662    37.3061 </r>
       <r>   -15.1320     8.1613    37.7590 </r>
       <r>   -15.0343     2.7107    38.3842 </r>
       <r>   -14.9367     3.2219    38.6348 </r>
       <r>   -14.8390     6.0870    39.1163 </r>
       <r>   -14.7413     6.2849    39.7481 </r>
       <r>   -14.6437     5.9559    40.3536 </r>
       <r>   -14.5460     4.3594    40.9176 </r>
       <r>   -14.4483     2.8673    41.3730 </r>
       <r>   -14.3507     1.1526    41.8134 </r>
       <r>   -14.2530     3.5641    42.4664 </r>
       <r>   -14.1553     6.0546    43.0823 </r>
       <r>   -14.0577     3.7080    43.5399 </r>
       <r>   -13.9600     2.8759    43.9304 </r>
       <r>   -13.8623     2.4153    44.1819 </r>
       <r>   -13.7647     4.5855    44.5132 </r>
       <r>   -13.6670     5.2155    45.0899 </r>
       <r>   -13.5693     3.5063    45.3277 </r>
       <r>   -13.4717     7.3125    46.0883 </r>
       <r>   -13.3740     4.3624    46.6418 </r>
       <r>   -13.2763     5.2081    47.1037 </r>
       <r>   -13.1787     5.2930    47.5749 </r>
       <r>   -13.0810     7.2396    48.2816 </r>
       <r>   -12.9833     4.4892    48.8227 </r>
       <r>   -12.8857    11.8875    49.7033 </r>
       <r>   -12.7880     5.7621    50.4123 </r>
       <r>   -12.6903     6.7353    51.0024 </r>
       <r>   -12.5927     3.9995    51.5952 </r>
       <r>   -12.4950     4.9674    52.1261 </r>
       <r>   -12.3973     4.7762    52.4717 </r>
       <r>   -12.2997     5.7789    53.0001 </r>
       <r>   -12.2020     6.6798    53.6122 </r>
       <r>   -12.1043     3.4300    54.3766 </r>
       <r>   -12.0067     4.9361    54.9491 </r>
       <r>   -11.9090     7.7742    55.7594 </r>
       <r>   -11.8113     4.9442    56.5592 </r>
       <r>   -11.7137     4.7401    57.0666 </r>
       <r>   -11.6160     3.8592    57.6222 </r>
       <r>   -11.5183     2.5760    57.9071 </r>
       <r>   -11.4207   248.1493    58.7761 </r>
       <r>   -11.3230     6.1881    60.0761 </r>
       <r>   -11.2253     8.2751    61.1421 </r>
       <r>   -11.1277     3.1254    61.9053 </r>
       <r>   -11.0300     5.0043    62.4063 </r>
       <r>   -10.9323     5.7446    62.9578 </r>
       <r>   -10.8347     3.0132    64.4480 </r>
       <r>   -10.7370     7.2138    65.0195 </r>
       <r>   -10.6393     3.3437    66.2357 </r>
       <r>   -10.5417     5.9376    66.8153 </r>
       <r>   -10.4440     8.1596    68.0128 </r>
       <r>   -10.3463     9.0027    69.1069 </r>
       <r>   -10.2487     6.2612    70.1099 </r>
       <r>   -10.1510     9.3570    71.2769 </r>
       <r>   -10.0533    10.9527    72.4770 </r>
       <r>    -9.9557    12.8774    73.8336 </r>
       <r>    -9.8580    26.0038    75.2989 </r>
       <r>    -9.7603     8.4829    76.5048 </r>
       <r>    -9.6627     8.9115    77.6200 </r>
       <r>    -9.5650    10.5285    78.9143 </r>
       <r>    -9.4673    14.3271    80.3513 </r>
       <r>    -9.3697    17.5111    81.6444 </r>
       <r>    -9.2720     7.6281    82.9601 </r>
       <r>    -9.1743    10.6965    84.2013 </r>
       <r>    -9.0767     6.1421    85.4350 </r>
       <r>    -8.9790    13.8130    86.5005 </r>
       <r>    -8.8813    15.4333    87.7225 </r>
       <r>    -8.7837    12.1725    88.9662 </r>
       <r>    -8.6860     7.5426    90.6768 </r>
       <r>    -8.5883     5.8987    91.6000 </r>
       <r>    -8.4907     5.8202    92.5442 </r>
       <r>    -8.3930     7.6709    93.3850 </r>
       <r>    -8.2953     7.8644    94.2007 </r>
       <r>    -8.1977    12.1148    95.2173 </r>
       <r>    -8.1000     9.7819    96.2996 </r>
       <r>    -8.0023     1.6838    97.1558 </r>
       <r>    -7.9047     3.2407    97.3963 </r>
       <r>    -7.8070     4.4098    98.3343 </r>
       <r>    -7.7093     4.2382    98.6708 </r>
       <r>    -7.6117     4.5327    99.6896 </r>
       <r>    -7.5140     5.2243   100.4608 </r>
       <r>    -7.4163     4.5200   101.0202 </r>
       <r>    -7.3187     4.9026   101.5682 </r>
       <r>    -7.2210    11.3362   102.5018 </r>
       <r>    -7.1233     4.8004   103.5826 </r>
       <r>    -7.0257     8.7818   104.7850 </r>
       <r>    -6.9280    18.3401   105.3074 </r>
       <r>    -6.8303     9.1500   106.3407 </r>
       <r>    -6.7327     8.4419   107.0745 </r>
       <r>    -6.6350     7.7840   107.7506 </r>
       <r>    -6.5373    11.8553   109.1307 </r>
       <r>    -6.4397     5.9415   109.8375 </r>
       <r>    -6.3420     4.3696   110.3722 </r>
       <r>    -6.2443     3.8223   110.7625 </r>
       <r>    -6.1467     6.2253   111.3364 </r>
       <r>    -6.0490     5.0324   111.9797 </r>
       <r>    -5.9513    15.0739   112.6226 </r>
       <r>    -5.8537    10.8380   113.8535 </r>
       <r>    -5.7560     2.0399   114.6413 </r>
       <r>    -5.6583     1.4701   114.8127 </r>
       <r>    -5.5607     0.8754   114.9266 </r>
       <r>    -5.4630    11.3860   115.3939 </r>
       <r>    -5.3653    45.8219   116.5124 </r>
       <r>    -5.2677    15.2946   117.3962 </r>
       <r>    -5.1700     3.7778   118.6205 </r>
       <r>    -5.0723     4.0036   119.0196 </r>
       <r>    -4.9746     3.0577   119.3913 </r>
       <r>    -4.8770     2.4001   119.6491 </r>
       <r>    -4.7793     4.6389   120.3611 </r>
       <r>    -4.6816     2.5148   120.5606 </r>
       <r>    -4.5840     2.9814   120.8220 </r>
       <r>    -4.4863     2.7891   121.1038 </r>
       <r>    -4.3886     3.6407   121.3927 </r>
       <r>    -4.2910     3.8519   121.9356 </r>
       <r>    -4.1933     0.0000   122.0000 </r>
       <r>    -4.0956     0.0000   122.0000 </r>
       <r>    -3.9980     0.0000   122.0000 </r>
       <r>    -3.9003     0.0000   122.0000 </r>
       <r>    -3.8026     0.0000   122.0000 </r>
       <r>    -3.7050     0.0000   122.0000 </r>
       <r>    -3.6073     5.6594   122.3272 </r>
       <r>    -3.5096     4.5093   122.6797 </r>
       <r>    -3.4120     1.4979   123.3453 </r>
       <r>    -3.3143     8.6042   123.6582 </r>
       <r>    -3.2166     0.0000   124.0000 </r>
       <r>    -3.1190    10.9778   124.2001 </r>
       <r>    -3.0213     7.8640   125.0491 </r>
       <r>    -2.9236     2.7305   125.7583 </r>
       <r>    -2.8260     1.6418   126.1617 </r>
       <r>    -2.7283     2.1784   126.3483 </r>
       <r>    -2.6306     4.2170   126.6309 </r>
       <r>    -2.5330     1.8420   126.9268 </r>
       <r>    -2.4353     0.0000   127.0000 </r>
       <r>    -2.3376     0.0000   127.0000 </r>
       <r>    -2.2400     0.0000   127.0000 </r>
       <r>    -2.1423     0.0000   127.0000 </r>
       <r>    -2.0446     4.2421   127.0846 </r>
       <r>    -1.9470     2.9403   127.4584 </r>
       <r>    -1.8493     3.5998   127.7793 </r>
       <r>    -1.7516     6.4190   128.2067 </r>
       <r>    -1.6540     6.7943   128.9506 </r>
       <r>    -1.5563     2.3309   129.3990 </r>
       <r>    -1.4586     5.5614   129.8852 </r>
       <r>    -1.3610     5.5078   130.4194 </r>
       <r>    -1.2633     8.0961   131.0721 </r>
       <r>    -1.1656     3.3405   131.4875 </r>
       <r>    -1.0680    13.1974   132.2374 </r>
       <r>    -0.9703     4.7739   133.0313 </r>
       <r>    -0.8726     4.7487   133.5094 </r>
       <r>    -0.7750     0.0000   134.0000 </r>
       <r>    -0.6773    16.1546   134.4344 </r>
       <r>    -0.5796     2.6758   135.0318 </r>
       <r>    -0.4820     4.0063   135.7661 </r>
       <r>    -0.3843    16.1055   136.4544 </r>
       <r>    -0.2866     3.6875   137.3353 </r>
       <r>    -0.1890     3.2317   137.7946 </r>
       <r>    -0.0913     6.4255   138.1384 </r>
       <r>     0.0064     4.1619   138.6608 </r>
       <r>     0.1040     4.6945   139.0878 </r>
       <r>     0.2017     5.5191   139.6452 </r>
       <r>     0.2994     4.2513   140.1650 </r>
       <r>     0.3970     3.7737   140.5583 </r>
       <r>     0.4947     7.1717   141.1802 </r>
       <r>     0.5924     5.6232   141.8202 </r>
       <r>     0.6900     5.0751   142.2614 </r>
       <r>     0.7877     7.6581   142.8584 </r>
       <r>     0.8854     5.1066   143.4994 </r>
       <r>     0.9830    11.5966   144.4750 </r>
       <r>     1.0807     0.0000   145.0000 </r>
       <r>     1.1784     5.7438   145.6865 </r>
       <r>     1.2760     7.7080   146.3242 </r>
       <r>     1.3737    14.1568   147.3058 </r>
       <r>     1.4714    14.8172   148.5806 </r>
       <r>     1.5690     9.3124   149.5319 </r>
       <r>     1.6667     9.0227   150.6018 </r>
       <r>     1.7644    11.7440   151.6170 </r>
       <r>     1.8620    10.2251   152.8063 </r>
       <r>     1.9597     8.7703   154.8027 </r>
       <r>     2.0574    14.3878   156.9319 </r>
       <r>     2.1550    16.4958   158.1533 </r>
       <r>     2.2527    22.9627   160.1545 </r>
       <r>     2.3504    25.6265   162.4614 </r>
       <r>     2.4480    17.0298   164.4294 </r>
       <r>     2.5457     7.9238   165.6201 </r>
       <r>     2.6434    19.9370   167.2854 </r>
       <r>     2.7410    25.9745   169.4182 </r>
       <r>     2.8387    25.2035   172.0002 </r>
       <r>     2.9364    19.1110   174.0699 </r>
       <r>     3.0340    33.8292   176.0815 </r>
       <r>     3.1317    19.3900   177.6544 </r>
       <r>     3.2294    31.9891   180.1309 </r>
       <r>     3.3270    30.5486   182.1695 </r>
       <r>     3.4247    12.0462   184.0930 </r>
       <r>     3.5224    33.7960   186.7315 </r>
       <r>     3.6200    19.8474   189.1165 </r>
       <r>     3.7177    25.4081   191.3303 </r>
       <r>     3.8154     0.0000   192.0000 </r>
       <r>     3.9130     0.0000   192.0000 </r>
       <r>     4.0107     0.0000   192.0000 </r>
       <r>     4.1084     0.0000   192.0000 </r>
       <r>     4.2060     0.0000   192.0000 </r>
       <r>     4.3037     0.0000   192.0000 </r>
       <r>     4.4014     0.0000   192.0000 </r>
       <r>     4.4990     0.0000   192.0000 </r>
       <r>     4.5967     0.0000   192.0000 </r>
       <r>     4.6944     0.0000   192.0000 </r>
       <r>     4.7920     0.0000   192.0000 </r>
       <r>     4.8897     0.0000   192.0000 </r>
       <r>     4.9874     0.0000   192.0000 </r>
       <r>     5.0850     0.0000   192.0000 </r>
      </set>
     </set>
    </array>
   </total>
  </dos>
 </calculation>
 <structure name="finalpos" >
  <crystal>
   <varray name="basis" >
    <v>       9.79547248      -0.00333527      -0.00000053 </v>
    <v>       4.90145290       8.48156207       0.00000839 </v>
    <v>      -0.00000267       0.00005124      49.95175233 </v>
   </varray>
   <i name="volume">   4150.85352548 </i>
   <varray name="rec_basis" >
    <v>       0.10206790      -0.05898453       0.00000007 </v>
    <v>       0.00004014       0.11787961      -0.00000012 </v>
    <v>       0.00000000      -0.00000002       0.02001932 </v>
   </varray>
  </crystal>
  <varray name="positions" >
   <v>       0.00037109       0.00032523       0.45751524 </v>
   <v>       0.08342726       0.08340273       0.45628254 </v>
   <v>       0.00037250       0.00032877       0.38248712 </v>
   <v>       0.08343042       0.08340672       0.38372384 </v>
   <v>       0.99854131       0.25059044       0.45537546 </v>
   <v>       0.08342018       0.33290984       0.45627529 </v>
   <v>       0.99854133       0.25059576       0.38463039 </v>
   <v>       0.08342335       0.33290960       0.38373052 </v>
   <v>       0.00038317       0.49901811       0.45750420 </v>
   <v>       0.08429182       0.58271153       0.45592849 </v>
   <v>       0.00038331       0.49902457       0.38249720 </v>
   <v>       0.08429223       0.58271391       0.38406972 </v>
   <v>       0.00008844       0.74981718       0.45722149 </v>
   <v>       0.08429782       0.83273458       0.45593609 </v>
   <v>       0.00009383       0.74982104       0.38277594 </v>
   <v>       0.08429768       0.83273928       0.38406292 </v>
   <v>       0.25060881       0.99853024       0.45536224 </v>
   <v>       0.33293573       0.08339591       0.45626146 </v>
   <v>       0.25061222       0.99853280       0.38464318 </v>
   <v>       0.33293176       0.08340155       0.38374391 </v>
   <v>       0.25060779       0.25057965       0.45535688 </v>
   <v>       0.33378343       0.33373846       0.44964417 </v>
   <v>       0.25061016       0.25058240       0.38464824 </v>
   <v>       0.33378356       0.33374044       0.39035558 </v>
   <v>       0.24574330       0.50142030       0.44800330 </v>
   <v>       0.29315471       0.60329186       0.43433977 </v>
   <v>       0.24574884       0.50142386       0.39199446 </v>
   <v>       0.29315909       0.60329155       0.40565753 </v>
   <v>       0.24575157       0.75255022       0.44800833 </v>
   <v>       0.33379291       0.83219732       0.44965051 </v>
   <v>       0.24575836       0.75254918       0.39199006 </v>
   <v>       0.33379421       0.83220201       0.39034973 </v>
   <v>       0.49905605       0.00034054       0.45748629 </v>
   <v>       0.58275880       0.08422018       0.45591358 </v>
   <v>       0.49906205       0.00034232       0.38251443 </v>
   <v>       0.58275933       0.08422237       0.38408419 </v>
   <v>       0.50146878       0.24566623       0.44799811 </v>
   <v>       0.60335032       0.29307678       0.43433764 </v>
   <v>       0.50147186       0.24567229       0.39199976 </v>
   <v>       0.60334934       0.29308106       0.40566003 </v>
   <v>       0.60335444       0.60331545       0.43433686 </v>
   <v>       0.60335576       0.60331739       0.40566065 </v>
   <v>       0.50147554       0.75259461       0.44800005 </v>
   <v>       0.58275836       0.83276000       0.45591122 </v>
   <v>       0.50147971       0.75259436       0.39199825 </v>
   <v>       0.58276017       0.83276599       0.38408680 </v>
   <v>       0.74987699       0.00001575       0.45721126 </v>
   <v>       0.83278583       0.08423183       0.45593436 </v>
   <v>       0.74987824       0.00002454       0.38278580 </v>
   <v>       0.83278871       0.08423304       0.38406461 </v>
   <v>       0.75259051       0.24569769       0.44801454 </v>
   <v>       0.83219577       0.33377070       0.44966559 </v>
   <v>       0.75258855       0.24570592       0.39198427 </v>
   <v>       0.83220005       0.33377243       0.39033521 </v>
   <v>       0.75260648       0.50144134       0.44801139 </v>
   <v>       0.83278609       0.58272674       0.45592432 </v>
   <v>       0.75260479       0.50144689       0.39198728 </v>
   <v>       0.83279150       0.58272984       0.38407417 </v>
   <v>       0.74989578       0.74984738       0.45720431 </v>
   <v>       0.83328610       0.83322285       0.45844632 </v>
   <v>       0.74989674       0.74985098       0.38279248 </v>
   <v>       0.83328861       0.83322554       0.38155043 </v>
  </varray>
  <varray name="velocities" >
   <v>       0.00000000       0.00000000       0.00000000 </v>
   <v>       0.00000000       0.00000000       0.00000000 </v>
   <v>       0.00000000       0.00000000       0.00000000 </v>
   <v>       0.00000000       0.00000000       0.00000000 </v>
   <v>       0.00000000       0.00000000       0.00000000 </v>
   <v>       0.00000000       0.00000000       0.00000000 </v>
   <v>       0.00000000       0.00000000       0.00000000 </v>
   <v>       0.00000000       0.00000000       0.00000000 </v>
   <v>       0.00000000       0.00000000       0.00000000 </v>
   <v>       0.00000000       0.00000000       0.00000000 </v>
   <v>       0.00000000       0.00000000       0.00000000 </v>
   <v>       0.00000000       0.00000000       0.00000000 </v>
   <v>       0.00000000       0.00000000       0.00000000 </v>
   <v>       0.00000000       0.00000000       0.00000000 </v>
   <v>       0.00000000       0.00000000       0.00000000 </v>
   <v>       0.00000000       0.00000000       0.00000000 </v>
   <v>       0.00000000       0.00000000       0.00000000 </v>
   <v>       0.00000000       0.00000000       0.00000000 </v>
   <v>       0.00000000       0.00000000       0.00000000 </v>
   <v>       0.00000000       0.00000000       0.00000000 </v>
   <v>       0.00000000       0.00000000       0.00000000 </v>
   <v>       0.00000000       0.00000000       0.00000000 </v>
   <v>       0.00000000       0.00000000       0.00000000 </v>
   <v>       0.00000000       0.00000000       0.00000000 </v>
   <v>       0.00000000       0.00000000       0.00000000 </v>
   <v>       0.00000000       0.00000000       0.00000000 </v>
   <v>       0.00000000       0.00000000       0.00000000 </v>
   <v>       0.00000000       0.00000000       0.00000000 </v>
   <v>       0.00000000       0.00000000       0.00000000 </v>
   <v>       0.00000000       0.00000000       0.00000000 </v>
   <v>       0.00000000       0.00000000       0.00000000 </v>
   <v>       0.00000000       0.00000000       0.00000000 </v>
   <v>       0.00000000       0.00000000       0.00000000 </v>
   <v>       0.00000000       0.00000000       0.00000000 </v>
   <v>       0.00000000       0.00000000       0.00000000 </v>
   <v>       0.00000000       0.00000000       0.00000000 </v>
   <v>       0.00000000       0.00000000       0.00000000 </v>
   <v>       0.00000000       0.00000000       0.00000000 </v>
   <v>       0.00000000       0.00000000       0.00000000 </v>
   <v>       0.00000000       0.00000000       0.00000000 </v>
   <v>       0.00000000       0.00000000       0.00000000 </v>
   <v>       0.00000000       0.00000000       0.00000000 </v>
   <v>       0.00000000       0.00000000       0.00000000 </v>
   <v>       0.00000000       0.00000000       0.00000000 </v>
   <v>       0.00000000       0.00000000       0.00000000 </v>
   <v>       0.00000000       0.00000000       0.00000000 </v>
   <v>       0.00000000       0.00000000       0.00000000 </v>
   <v>       0.00000000       0.00000000       0.00000000 </v>
   <v>       0.00000000       0.00000000       0.00000000 </v>
   <v>       0.00000000       0.00000000       0.00000000 </v>
   <v>       0.00000000       0.00000000       0.00000000 </v>
   <v>       0.00000000       0.00000000       0.00000000 </v>
   <v>       0.00000000       0.00000000       0.00000000 </v>
   <v>       0.00000000       0.00000000       0.00000000 </v>
   <v>       0.00000000       0.00000000       0.00000000 </v>
   <v>       0.00000000       0.00000000       0.00000000 </v>
   <v>       0.00000000       0.00000000       0.00000000 </v>
   <v>       0.00000000       0.00000000       0.00000000 </v>
   <v>       0.00000000       0.00000000       0.00000000 </v>
   <v>       0.00000000       0.00000000       0.00000000 </v>
   <v>       0.00000000       0.00000000       0.00000000 </v>
   <v>       0.00000000       0.00000000       0.00000000 </v>
  </varray>
 </structure>
</modeling>
