unknown system                          
           1
     9.795472   -0.003335   -0.000001
     4.901453    8.481562    0.000008
    -0.000003    0.000051   49.951752
   C 
  62
Direct configuration=     1
   0.00037109  0.00032523  0.45751524
   0.08342726  0.08340273  0.45628254
   0.00037250  0.00032877  0.38248712
   0.08343042  0.08340672  0.38372384
   0.99854131  0.25059044  0.45537546
   0.08342018  0.33290984  0.45627529
   0.99854133  0.25059576  0.38463039
   0.08342335  0.33290960  0.38373052
   0.00038317  0.49901811  0.45750420
   0.08429182  0.58271153  0.45592849
   0.00038331  0.49902457  0.38249720
   0.08429223  0.58271391  0.38406972
   0.00008844  0.74981718  0.45722149
   0.08429782  0.83273458  0.45593609
   0.00009383  0.74982104  0.38277594
   0.08429768  0.83273928  0.38406292
   0.25060881  0.99853024  0.45536224
   0.33293573  0.08339591  0.45626146
   0.25061222  0.99853280  0.38464318
   0.33293176  0.08340155  0.38374391
   0.25060779  0.25057965  0.45535688
   0.33378343  0.33373846  0.44964417
   0.25061016  0.25058240  0.38464824
   0.33378356  0.33374044  0.39035558
   0.24574330  0.50142030  0.44800330
   0.29315471  0.60329186  0.43433977
   0.24574884  0.50142386  0.39199446
   0.29315909  0.60329155  0.40565753
   0.24575157  0.75255022  0.44800833
   0.33379291  0.83219732  0.44965051
   0.24575836  0.75254918  0.39199006
   0.33379421  0.83220201  0.39034973
   0.49905605  0.00034054  0.45748629
   0.58275880  0.08422018  0.45591358
   0.49906205  0.00034232  0.38251443
   0.58275933  0.08422237  0.38408419
   0.50146878  0.24566623  0.44799811
   0.60335032  0.29307678  0.43433764
   0.50147186  0.24567229  0.39199976
   0.60334934  0.29308106  0.40566003
   0.60335444  0.60331545  0.43433686
   0.60335576  0.60331739  0.40566065
   0.50147554  0.75259461  0.44800005
   0.58275836  0.83276000  0.45591122
   0.50147971  0.75259436  0.39199825
   0.58276017  0.83276599  0.38408680
   0.74987699  0.00001575  0.45721126
   0.83278583  0.08423183  0.45593436
   0.74987824  0.00002454  0.38278580
   0.83278871  0.08423304  0.38406461
   0.75259051  0.24569769  0.44801454
   0.83219577  0.33377070  0.44966559
   0.75258855  0.24570592  0.39198427
   0.83220005  0.33377243  0.39033521
   0.75260648  0.50144134  0.44801139
   0.83278609  0.58272674  0.45592432
   0.75260479  0.50144689  0.39198728
   0.83279150  0.58272984  0.38407417
   0.74989578  0.74984738  0.45720431
   0.83328610  0.83322285  0.45844632
   0.74989674  0.74985098  0.38279248
   0.83328861  0.83322554  0.38155043
