31
Lattice="9.816206796655607 0.0070658291094118 9.5187194756e-06 4.920842279408164 8.513240569159368 1.72679722868e-05 4.78715482623e-05 7.35984575209e-05 49.91257838124765" Properties=species:S:1:pos:R:3:forces:R:3:energies:R:1 energy=-280.8572082519531 stress="-0.0002803087991196662 -4.151430766796693e-05 -1.690065687398601e-08 -4.151430766796693e-05 -0.000311347161186859 1.4195016717621911e-08 -1.690065687398601e-08 1.4195016717621911e-08 3.0940761064357503e-10" free_energy=-280.8572082519531 pbc="T T T"
C        0.00366325       0.00039225      21.96151083      -0.05228311      -0.00537154      -0.00008769      -9.21530724
C        1.22452219       0.71096328      21.96151057       0.00013130       0.01498675       0.00023803      -9.15548897
C        1.22600852       2.12972880      21.96152034       0.01236767      -0.06947132       0.00013088      -9.33054352
C        2.45388494       2.83772332      21.96154342       0.01770964       0.07275485      -0.00000312      -9.15778732
C        2.46083710       4.25114188      21.96154746      -0.02422079       0.02234277      -0.00033950      -9.21296215
C        3.69959358       4.96523078      21.96154541       0.06962369       0.05098802      -0.00028976      -9.16075325
C       13.51254261       6.38705311      21.96156071       0.07990779      -0.02224408       0.00018193      -9.29708195
C        4.92434585       7.08370397      21.96155496      -0.01431948      -0.11118823      -0.00004577      -9.15839100
C        2.45205451       0.00328560      21.96155219      -0.05631404       0.07084857      -0.00027205      -9.33008385
C        3.67898366       0.71151544      21.96155998       0.07045452      -0.00543296      -0.00016748      -9.15598011
C        3.68018050       2.12900912      21.96155130      -0.08479469      -0.04521821      -0.00033987      -9.32922649
C        4.89560838       2.83056982      21.96146782       0.02966873       0.00649368       0.00119111      -9.26412106
C        4.95028229       4.24210245      21.96146062       0.05310214      -0.16601172       0.00055371      -9.08214474
C        6.14071826       4.96660493      21.96140562      -0.13525367       0.08524173      -0.00088676      -7.82464933
C        6.17575178       6.36044722      21.96154175       0.15712760       0.03201234      -0.00021173      -9.08406734
C        7.37113324       7.11296265      21.96155995       0.04317015      -0.03629049      -0.00062685      -9.26435757
C        4.90255409       0.00549109      21.96151617       0.00305447      -0.00494118       0.00005332      -9.21536636
C        6.13815610       0.71519208      21.96157776       0.09755123       0.01397045       0.00013074      -9.14854145
C        6.13555240       2.15616330      21.96166668      -0.20877273       0.10578215      -0.00075153      -9.07212353
C        7.35124577       2.81365396      21.96162915       0.14943263      -0.09192550      -0.00091971      -7.79053020
C        8.61518870       4.99551252      21.96202546       0.14666307      -0.08131057      -0.00097458      -7.78947592
C        8.57601960       6.37640431      21.96145777      -0.22501348       0.14926851       0.00223038      -9.07145882
C        9.82541747       7.09412970      21.96149127       0.05327217      -0.10271706      -0.00001530      -9.14737034
C       12.28226057       8.52012576      21.96155547       0.01005506       0.07918978       0.00003804      -9.30215740
C        8.58321300       0.72104380      21.96146595      -0.09795474       0.02547443      -0.00010395      -9.14102745
C        8.58197149       2.16764783      21.96137855       0.08134934       0.10189140       0.00176304      -9.08096027
C        9.82567238       2.83878597      21.96158637      -0.00991484       0.05085928      -0.00168093      -9.28244781
C        9.78825576       4.25245857      21.96152879      -0.04919967      -0.17722705       0.00162330      -9.07829189
C       11.04159817       4.97307481      21.96150889      -0.05193137       0.07674034       0.00037827      -9.14233971
C       11.05013068       6.38789052      21.96157209      -0.05369344      -0.01851213      -0.00055258      -9.30099010
C       12.28215040       7.09850328      21.96158629      -0.01097665      -0.02098348      -0.00024360      -9.27118587
