31
Lattice="9.829358638701626 -0.0008801460423802614 -6.608956662979468e-05 4.920543231757267 8.514324022208715 -7.178585706807701e-05 -0.0003363542368880397 -0.00022641963328721192 49.912570083292685" Properties=species:S:1:pos:R:3:forces:R:3 energy=-242.1512339062322 stress="-1.1839527954538519e-06 1.215124118276512e-07 -1.2880102402296412e-10 1.215124118276512e-07 -1.0718256076245702e-06 7.095760142746085e-10 -1.2880102402296412e-10 7.095760142746085e-10 1.078111693958617e-11" free_energy=-242.1512339062322 pbc="T T T"
C       -0.00267629      -0.00232672      21.96149092      -0.00179152      -0.00008305      -0.00000141
C        1.22345632       0.70730329      21.96148388       0.00005010      -0.00210817       0.00000150
C        1.22683856       2.12870330      21.96148641       0.00286394      -0.00151647       0.00003305
C        2.45671391       2.84136970      21.96148247       0.00203859       0.00119859       0.00001060
C        2.45955662       4.25805481      21.96148445      -0.00092232       0.00171844       0.00001329
C        3.70085720       4.96406038      21.96145744      -0.00263465       0.00264976       0.00000524
C       13.52704170       6.37902349      21.96138002      -0.00269447       0.00151682      -0.00000841
C        4.92611747       7.08389982      21.96142158      -0.00368347       0.00124989      -0.00000956
C        2.45522868      -0.00073205      21.96149514       0.00114304      -0.00118530       0.00001412
C        3.68769299       0.70670106      21.96149609       0.00303205      -0.00154487       0.00001299
C        3.68516944       2.12768555      21.96148514       0.00197278      -0.00005028      -0.00001443
C        4.90391205       2.83017596      21.96148132       0.00141519       0.00117102      -0.00000478
C        4.95241596       4.24445507      21.96144987      -0.00352387       0.00196949       0.00000270
C        6.15225032       4.96103380      21.96139518      -0.00783501       0.00535337       0.00006521
C        6.17456280       6.35851639      21.96141801      -0.00358683       0.00294437       0.00002373
C        7.37572467       7.10684651      21.96144997      -0.00037552      -0.00110010      -0.00000520
C        4.91451548      -0.00195489      21.96150751       0.00244118      -0.00152490       0.00002408
C        6.14683368       0.71667601      21.96149277       0.00249630       0.00187887       0.00000647
C        6.14908221       2.15915369      21.96149779       0.00415414       0.00501973      -0.00003324
C        7.36865505       2.83578356      21.96149614       0.00717129       0.00539828      -0.00003183
C        8.60274369       4.96933342      21.96164770      -0.00284245      -0.00909210      -0.00018083
C        8.57919748       6.36361249      21.96151965      -0.00276178      -0.00610531      -0.00002034
C        9.82785169       7.08593026      21.96146948      -0.00072315      -0.00324992       0.00001208
C       12.29164439       8.51997075      21.96139730      -0.00016704       0.00121783       0.00000562
C        8.59481769       0.71785164      21.96144252      -0.00038000      -0.00035906      -0.00000098
C        8.59118645       2.16210560      21.96145170       0.00327861      -0.00060335       0.00003518
C        9.83795846       2.83186489      21.96145157       0.00458091      -0.00272337       0.00000257
C        9.79643060       4.24645613      21.96150963       0.00110107      -0.00264147      -0.00000891
C       11.04934782       4.96454298      21.96145779      -0.00047018       0.00037691       0.00000648
C       11.05529824       6.38039911      21.96144599      -0.00148215      -0.00069684       0.00003117
C       12.29160457       7.09300367      21.96140356      -0.00186478       0.00092118       0.00001385
