31
Lattice="9.822338694473457 -0.0022788351074298583 -6.060467453326006e-06 4.915816778778577 8.506458811144714 -4.2599663703276294e-05 -3.116443854593454e-05 -0.00023180393027217986 49.91256932216462" Properties=species:S:1:pos:R:3:forces:R:3 energy=-239.65579397092853 stress="-2.3511833466781862e-06 1.0318489210829978e-07 -6.59972246648184e-11 1.0318489210829978e-07 -2.257055585561772e-06 3.445217030187958e-10 -6.59972246648184e-11 3.445217030187958e-10 4.4782751843140155e-12" free_energy=-239.65579397092853 pbc="T T T"
C       -0.00285082      -0.00233750      21.96150092      -0.00046315       0.00063553       0.00001288
C        1.22419593       0.70693678      21.96150268       0.00139224      -0.00154246       0.00002428
C        1.22067189       2.12974370      21.96151009       0.00331028      -0.00176812       0.00001835
C        2.45517966       2.83713996      21.96150318       0.00226058      -0.00023068       0.00001393
C        2.45716408       4.25443941      21.96150294      -0.00087675       0.00015837       0.00000856
C        3.69089702       4.96286763      21.96147964      -0.00218773       0.00113576       0.00001370
C       13.51005333       6.37549765      21.96146315      -0.00231179       0.00127991       0.00001238
C        4.91526916       7.08140859      21.96145907      -0.00217671       0.00152106       0.00001439
C        2.45400685      -0.00794922      21.96151921       0.00125757      -0.00111790       0.00001046
C        3.68444753       0.70601266      21.96152138       0.00152301      -0.00061504       0.00000630
C        3.68859206       2.12854487      21.96150411       0.00201497      -0.00014472       0.00000319
C        4.90863377       2.83191620      21.96150107       0.00154607       0.00123300      -0.00000558
C        4.94149184       4.25294775      21.96148047      -0.00321188       0.00147757       0.00001868
C        6.13486947       4.96340092      21.96147687      -0.00665662       0.00453154       0.00003571
C        6.15481478       6.35215763      21.96147521      -0.00293713       0.00284692       0.00001778
C        7.36964914       7.09023128      21.96150165      -0.00032195      -0.00128171      -0.00000638
C        4.91174385      -0.00302477      21.96153802       0.00069175      -0.00051054       0.00000550
C        6.14254383       0.70888118      21.96152551       0.00071547       0.00245997       0.00000142
C        6.15336471       2.14624734      21.96151874       0.00314655       0.00402985      -0.00001347
C        7.36503312       2.82251375      21.96152718       0.00574846       0.00326505      -0.00001720
C        8.60489624       4.96707700      21.96158447      -0.00139079      -0.00675263      -0.00009869
C        8.58545611       6.35445714      21.96154750      -0.00241201      -0.00471980      -0.00004743
C        9.82539554       7.08162362      21.96152489      -0.00210767      -0.00202332      -0.00000685
C       12.28165897       8.50447442      21.96147296      -0.00049157       0.00152831       0.00000818
C        8.58911081       0.70898775      21.96150452       0.00045110       0.00061537       0.00001146
C        8.57784837       2.14733242      21.96152145       0.00328144      -0.00036942      -0.00000005
C        9.82366670       2.83213020      21.96152969       0.00396314      -0.00231928      -0.00000274
C        9.79530611       4.25343086      21.96155711       0.00100880      -0.00273740      -0.00004630
C       11.04701707       4.96192051      21.96152587      -0.00084117      -0.00089045      -0.00000641
C       11.05216571       6.37677612      21.96151407      -0.00194563      -0.00061100       0.00000072
C       12.28143587       7.08551703      21.96147894      -0.00197888       0.00091624       0.00001326
