31
Lattice="9.829892933668972 -0.0007308956009316947 9.140967647353648e-05 4.920940103399602 8.514892113599315 6.823015110061479e-06 0.0004644891260246095 -0.00022843904398141452 49.91257912092942" Properties=species:S:1:pos:R:3:forces:R:3:energies:R:1 energy=-280.8641357421875 stress="-2.2073193122196244e-06 1.1774349673032702e-07 -1.7412794539595211e-09 1.1774349673032702e-07 -2.086688482449972e-06 4.687189747443199e-09 -1.7412794539595211e-09 4.687189747443199e-09 -6.163473204034986e-11" free_energy=-280.8641357421875 pbc="T T T"
C        0.00172297       0.00016607      21.96150544      -0.00014201       0.00055185      -0.00002041      -9.21337414
C        1.22636555       0.70874166      21.96150625       0.00147661      -0.00125513      -0.00001407      -9.15881920
C        1.23003415       2.12726128      21.96150451       0.00261827      -0.00137838      -0.00000044      -9.33028603
C        2.45727163       2.83874646      21.96153952       0.00203668      -0.00044641       0.00001584      -9.15878391
C        2.45995554       4.25358940      21.96153467      -0.00059485      -0.00007892       0.00002472      -9.21343136
C        3.69890475       4.96692908      21.96153245      -0.00219445       0.00107098      -0.00001240      -9.14077473
C       13.52554137       6.38113006      21.96160247      -0.00206894       0.00114292      -0.00001853      -9.30780983
C        4.92335136       7.08533835      21.96149389      -0.00208513       0.00162880      -0.00005749      -9.14045238
C        2.45582919       0.00219892      21.96154034       0.00118521      -0.00101039       0.00000493      -9.32987785
C        3.68603240       0.70806586      21.96157712       0.00132615      -0.00051677       0.00003766      -9.15855122
C        3.68329725       2.12631804      21.96158239       0.00181650      -0.00019054       0.00001401      -9.32982063
C        4.90076349       2.82821859      21.96158878       0.00155935       0.00098870       0.00002089      -9.27965355
C        4.94814628       4.23963812      21.96152162      -0.00320706       0.00129272      -0.00004007      -9.08262253
C        6.12506059       4.97756738      21.96123743      -0.00714755       0.00486374      -0.00021083      -7.80889702
C        6.17733299       6.36583841      21.96144108      -0.00285363       0.00290382      -0.00008785      -9.08297157
C        7.37658428       7.11178780      21.96156777      -0.00007619      -0.00126109      -0.00000218      -9.28006363
C        4.91110212       0.00043551      21.96159328       0.00067392      -0.00047684       0.00002116      -9.21383762
C        6.14846531       0.71357018      21.96161014       0.00092803       0.00215653       0.00001358      -9.13814163
C        6.14327689       2.15805808      21.96162170       0.00297555       0.00385225      -0.00002867      -9.07906151
C        7.36991954       2.80498250      21.96149310       0.00558597       0.00340462      -0.00012968      -7.79919338
C        8.63078737       4.98485744      21.96208348      -0.00172317      -0.00676763       0.00026488      -7.79783440
C        8.57801526       6.37043073      21.96172274      -0.00230661      -0.00450680       0.00006931      -9.07887363
C        9.83214902       7.08729205      21.96163977      -0.00172456      -0.00200309       0.00006998      -9.13744450
C       12.29262733       8.51788503      21.96160073      -0.00026304       0.00117372      -0.00000170      -9.30920506
C        8.59460105       0.71458869      21.96157196       0.00070868       0.00029935      -0.00003786      -9.13563442
C        8.59910348       2.16073328      21.96152869       0.00284314      -0.00059073      -0.00006659      -9.08182049
C        9.84321787       2.82967489      21.96160180       0.00322654      -0.00185325       0.00000027      -9.28307724
C        9.80234128       4.24156415      21.96171063       0.00095707      -0.00226986       0.00007505      -9.08128357
C       11.05284849       4.96762280      21.96164195      -0.00047802      -0.00086649       0.00004480      -9.13525867
C       11.05866860       6.38244683      21.96163319      -0.00144673      -0.00060896       0.00003319      -9.30940914
C       12.29251491       7.09371568      21.96160902      -0.00160518       0.00075008       0.00001850      -9.26784420
