31
Lattice="9.83226068322291 -0.0023052122802085778 -3.0601103088857153e-05 4.920761593500165 8.515044123445815 -5.6747228999955206e-05 -0.00015589056123194864 -0.00024255369342692315 49.91257021666401" Properties=species:S:1:pos:R:3:forces:R:3 energy=-281.23615532021813 stress="-5.19054876199694e-07 1.3233949808287446e-07 -1.5723111971596343e-10 1.3233949808287446e-07 -3.969001711800136e-07 7.525943764447598e-10 -1.5723111971596343e-10 7.525943764447598e-10 1.2198901390888495e-11" free_energy=-281.23615532021813 pbc="T T T"
C        0.00049976      -0.00034508      21.96149968      -0.00032415       0.00103709       0.00000140
C        1.22661156       0.70832054      21.96149336       0.00230578      -0.00171853       0.00001055
C        1.23081632       2.12670348      21.96149583       0.00468041      -0.00249513       0.00003765
C        2.45763787       2.83857543      21.96149478       0.00293110      -0.00079535       0.00000735
C        2.45954231       4.25476113      21.96149285      -0.00116314      -0.00006814       0.00002078
C        3.69953800       4.96656148      21.96146803      -0.00404026       0.00264236       0.00000262
C       13.52604836       6.38049725      21.96143080      -0.00461311       0.00260988      -0.00002448
C        4.92377150       7.08487372      21.96144656      -0.00441821       0.00249682      -0.00002863
C        2.45639806       0.00221373      21.96150966       0.00189198      -0.00071403       0.00001215
C        3.68674490       0.70751533      21.96151295       0.00223091      -0.00096495       0.00000395
C        3.68345209       2.12564585      21.96150175       0.00204230      -0.00080600      -0.00001757
C        4.90152030       2.82785956      21.96149696       0.00146734       0.00124904      -0.00002508
C        4.95062807       4.24122803      21.96145619      -0.00464714       0.00250511       0.00002034
C        6.14308023       4.96722413      21.96140294      -0.00717203       0.00500937       0.00008887
C        6.17693075       6.36294199      21.96144057      -0.00458186       0.00375238       0.00001642
C        7.37700251       7.11125958      21.96147887      -0.00039272      -0.00105434       0.00000278
C        4.91307549      -0.00098507      21.96152050       0.00123609      -0.00085568       0.00003695
C        6.14999551       0.71441774      21.96151227       0.00164213       0.00237093      -0.00000798
C        6.14795063       2.16013852      21.96151480       0.00397224       0.00478707      -0.00004837
C        7.37250719       2.82800385      21.96150864       0.00749393       0.00559523      -0.00003128
C        8.61118818       4.97064616      21.96165609      -0.00284202      -0.00943706      -0.00021334
C        8.57809236       6.36501305      21.96154844      -0.00280944      -0.00580384      -0.00003395
C        9.83171467       7.08519687      21.96149408      -0.00172737      -0.00282851       0.00004960
C       12.29393205       8.51567399      21.96143990      -0.00050678       0.00082231       0.00000330
C        8.59623893       0.71452896      21.96147778       0.00054655      -0.00013338       0.00001962
C        8.59822701       2.16113684      21.96148642       0.00419065      -0.00095383       0.00004001
C        9.84564224       2.82796043      21.96149345       0.00571781      -0.00335014       0.00003155
C        9.80086453       4.24168862      21.96155262       0.00175697      -0.00331601      -0.00004240
C       11.05316062       4.96577055      21.96149634      -0.00034452      -0.00066150       0.00001782
C       11.06095192       6.38191768      21.96148002      -0.00149962      -0.00033750       0.00004770
C       12.29388707       7.09258364      21.96144654      -0.00302383       0.00141632       0.00000169
