31
Lattice="9.832353687504408 0.1028602636207745 0.00013443372492493694 5.012054296728476 8.459651022974194 0.00019886635418933155 0.000683323256585687 0.0007710424354759346 49.912568200319555" Properties=species:S:1:pos:R:3:forces:R:3 energy=-281.41567581417934 stress="7.661406460422458e-07 -1.1946554395331346e-07 -7.6858145472639e-11 -1.1946554395331346e-07 9.093386311848647e-07 -3.0929198161056666e-11 -7.6858145472639e-11 -3.0929198161056666e-11 -3.3065581187359597e-12" pbc="T T T"
C       -0.01208089      -0.00704292      21.96150972      -0.00025805      -0.00009762      -0.00000619
C        1.21040035       0.69813227      21.96153694      -0.00053217      -0.00039054      -0.00000850
C        1.20622724       2.11282935      21.96156541      -0.00133052      -0.00004238      -0.00000700
C        2.44598556       2.81828960      21.96159583      -0.00116281      -0.00032394      -0.00000710
C        2.52826047       4.22491482      21.96162519       0.00045259      -0.00021714      -0.00000395
C        3.77035786       4.92620880      21.96164613       0.00050135      -0.00042325      -0.00000401
C       13.62437207       6.43535374      21.96180144       0.00085186      -0.00016111      -0.00000401
C        5.04367460       6.99324358      21.96168691       0.00130734      -0.00154805      -0.00000498
C        2.43290754      -0.01380171      21.96154999      -0.00066357      -0.00131338      -0.00000697
C        3.66431202       0.70613436      21.96158155      -0.00083430      -0.00097093      -0.00000818
C        3.65703231       2.10938783      21.96159937      -0.00147834      -0.00092053      -0.00000853
C        4.86567240       2.80653781      21.96162741      -0.00135253      -0.00077435      -0.00000552
C        4.98462436       4.19775207      21.96164766      -0.00000377      -0.00100394      -0.00000362
C        6.30739787       4.72054288      21.96166901       0.00379347      -0.00688215      -0.00000323
C        6.29959206       6.21131842      21.96169576       0.00203565      -0.00430898      -0.00000257
C        7.44846907       7.04218879      21.96174261       0.00032445      -0.00184274       0.00000243
C        4.92310873       0.07304677      21.96159651       0.00006780       0.00045990      -0.00000618
C        6.15208103       0.79707120      21.96161777      -0.00011702       0.00077433      -0.00000699
C        6.12948109       2.21289563      21.96163474      -0.00081865       0.00068687      -0.00000584
C        7.24432471       3.09613531      21.96165772      -0.00397899       0.00707606      -0.00000482
C        8.79559515       5.07342171      21.96186656       0.00069831       0.00023038       0.00006838
C        8.69936782       6.41635426      21.96179750       0.00141091       0.00020421       0.00002251
C        9.94340084       7.13140789      21.96179518       0.00100770       0.00043751       0.00000409
C       12.39229175       8.57134669      21.96182004       0.00026538       0.00096968      -0.00000606
C        8.57889241       0.86432593      21.96164080      -0.00069416       0.00207418      -0.00000656
C        8.53085802       2.34298830      21.96166673      -0.00262528       0.00408819      -0.00000429
C        9.82528950       2.92152252      21.96171009      -0.00123931       0.00112667       0.00000173
C        9.90986620       4.31768863      21.96177983       0.00111228       0.00103644       0.00002272
C       11.15173751       5.03651866      21.96177681       0.00098722       0.00064663       0.00000529
C       11.16874920       6.44226115      21.96179505       0.00119990       0.00070667       0.00000213
C       12.40073131       7.15287553      21.96180378       0.00107326       0.00070331      -0.00000419
