       N       E                     dE             d eps       ncg     rms          rms(c)
DAV:   1     0.297508132577E+04    0.29751E+04   -0.10159E+05  4368   0.163E+03
DAV:   2     0.134918950740E+03   -0.28402E+04   -0.26763E+04  6432   0.291E+02
DAV:   3    -0.559368474281E+03   -0.69429E+03   -0.69113E+03  4980   0.149E+02
DAV:   4    -0.594200113983E+03   -0.34832E+02   -0.34411E+02  4956   0.439E+01
DAV:   5    -0.595150277632E+03   -0.95016E+00   -0.94166E+00  5340   0.678E+00    0.342E+01
DAV:   6    -0.568413437108E+03    0.26737E+02   -0.27860E+01  4680   0.122E+01    0.199E+01
DAV:   7    -0.559565947064E+03    0.88475E+01   -0.32431E+01  4500   0.126E+01    0.541E+00
DAV:   8    -0.559508970733E+03    0.56976E-01   -0.10748E+00  4800   0.282E+00    0.191E+00
DAV:   9    -0.559457148243E+03    0.51822E-01   -0.16168E-01  4704   0.103E+00    0.379E-01
DAV:  10    -0.559445535796E+03    0.11612E-01   -0.14263E-02  4932   0.353E-01    0.252E-01
DAV:  11    -0.559435117663E+03    0.10418E-01   -0.91830E-03  4548   0.217E-01    0.157E-01
DAV:  12    -0.559430750662E+03    0.43670E-02   -0.92317E-03  4368   0.166E-01    0.927E-02
DAV:  13    -0.559434147032E+03   -0.33964E-02   -0.53282E-03  4476   0.136E-01    0.541E-02
DAV:  14    -0.559438543931E+03   -0.43969E-02   -0.12291E-03  4440   0.790E-02    0.325E-02
DAV:  15    -0.559442422847E+03   -0.38789E-02   -0.29943E-04  4800   0.393E-02    0.185E-02
DAV:  16    -0.559444468384E+03   -0.20455E-02   -0.84964E-05  4404   0.179E-02    0.121E-02
DAV:  17    -0.559446511486E+03   -0.20431E-02   -0.62089E-05  4320   0.125E-02    0.695E-03
DAV:  18    -0.559447693845E+03   -0.11824E-02   -0.48415E-05  4476   0.974E-03    0.393E-03
DAV:  19    -0.559448126868E+03   -0.43302E-03   -0.10948E-05  4272   0.503E-03    0.238E-03
DAV:  20    -0.559448419311E+03   -0.29244E-03   -0.94589E-06  3996   0.428E-03    0.134E-03
DAV:  21    -0.559448529936E+03   -0.11062E-03   -0.22155E-06  3840   0.216E-03    0.765E-04
DAV:  22    -0.559448590979E+03   -0.61043E-04   -0.73216E-07  3684   0.123E-03    0.425E-04
DAV:  23    -0.559448613402E+03   -0.22424E-04   -0.93674E-08  3180   0.531E-04    0.249E-04
DAV:  24    -0.559448624589E+03   -0.11187E-04   -0.24257E-08  2868   0.304E-04    0.135E-04
DAV:  25    -0.559448630170E+03   -0.55812E-05   -0.80000E-09  2640   0.193E-04    0.848E-05
DAV:  26    -0.559448632419E+03   -0.22493E-05   -0.79225E-10  2604   0.118E-04    0.493E-05
DAV:  27    -0.559448633643E+03   -0.12239E-05    0.11166E-09  2556   0.910E-05    0.258E-05
DAV:  28    -0.559448634168E+03   -0.52424E-06    0.23209E-09  2604   0.623E-05    0.125E-05
DAV:  29    -0.559448634396E+03   -0.22808E-06    0.31068E-09  2712   0.425E-05    0.683E-06
DAV:  30    -0.559448634474E+03   -0.77922E-07    0.34522E-09  2676   0.258E-05
   1 F= -.56634431E+03 E0= -.56634431E+03  d E =-.566344E+03
       N       E                     dE             d eps       ncg     rms          rms(c)
DAV:   1    -0.559302121668E+03    0.14651E+00   -0.11829E+02  4104   0.334E+01    0.741E+00
DAV:   2    -0.558551449340E+03    0.75067E+00   -0.40842E+00  4632   0.577E+00    0.456E+00
DAV:   3    -0.558040966231E+03    0.51048E+00   -0.12524E+00  4392   0.346E+00    0.522E-01
DAV:   4    -0.558053118010E+03   -0.12152E-01   -0.18680E-01  4704   0.112E+00    0.402E-01
DAV:   5    -0.558051184243E+03    0.19338E-02   -0.12685E-02  4812   0.314E-01    0.129E-01
DAV:   6    -0.558050990163E+03    0.19408E-03   -0.98719E-04  4704   0.968E-02    0.682E-02
DAV:   7    -0.558051105735E+03   -0.11557E-03   -0.42334E-04  4392   0.518E-02    0.289E-02
DAV:   8    -0.558051256609E+03   -0.15087E-03   -0.46388E-05  4644   0.172E-02    0.166E-02
DAV:   9    -0.558051548471E+03   -0.29186E-03   -0.40954E-05  4308   0.116E-02    0.771E-03
DAV:  10    -0.558051726806E+03   -0.17833E-03   -0.94541E-06  4488   0.603E-03    0.594E-03
DAV:  11    -0.558052022125E+03   -0.29532E-03   -0.31657E-05  4260   0.831E-03    0.296E-03
DAV:  12    -0.558052129623E+03   -0.10750E-03   -0.52801E-06  4440   0.404E-03    0.299E-03
DAV:  13    -0.558052186353E+03   -0.56731E-04   -0.15901E-06  3852   0.245E-03    0.943E-04
DAV:  14    -0.558052220720E+03   -0.34366E-04   -0.26157E-07  3744   0.119E-03    0.657E-04
DAV:  15    -0.558052246979E+03   -0.26259E-04   -0.16377E-07  3624   0.673E-04    0.426E-04
DAV:  16    -0.558052257738E+03   -0.10759E-04   -0.13113E-07  3624   0.491E-04    0.230E-04
DAV:  17    -0.558052263959E+03   -0.62207E-05   -0.33005E-08  2964   0.300E-04    0.102E-04
DAV:  18    -0.558052267174E+03   -0.32154E-05   -0.23215E-08  2916   0.221E-04    0.775E-05
DAV:  19    -0.558052269025E+03   -0.18509E-05   -0.12750E-08  2760   0.184E-04    0.508E-05
DAV:  20    -0.558052269479E+03   -0.45440E-06    0.48386E-10  2736   0.104E-04    0.189E-05
DAV:  21    -0.558052269864E+03   -0.38403E-06    0.17060E-09  2616   0.748E-05    0.120E-05
DAV:  22    -0.558052269989E+03   -0.12538E-06    0.36609E-09  2628   0.468E-05    0.835E-06
DAV:  23    -0.558052270059E+03   -0.70053E-07    0.40466E-09  2604   0.280E-05
   2 F= -.56524749E+03 E0= -.56524749E+03  d E =0.109682E+01
       N       E                     dE             d eps       ncg     rms          rms(c)
DAV:   1    -0.560292590627E+03   -0.22403E+01   -0.79455E+01  4056   0.258E+01    0.432E+00
DAV:   2    -0.560113012157E+03    0.17958E+00   -0.23409E+00  4548   0.419E+00    0.297E+00
DAV:   3    -0.559915265766E+03    0.19775E+00   -0.34175E-01  4524   0.179E+00    0.884E-01
DAV:   4    -0.559907787421E+03    0.74783E-02   -0.82909E-02  4800   0.746E-01    0.266E-01
DAV:   5    -0.559907767513E+03    0.19908E-04   -0.70697E-03  4404   0.232E-01    0.111E-01
DAV:   6    -0.559908008309E+03   -0.24080E-03   -0.57108E-04  4656   0.690E-02    0.403E-02
DAV:   7    -0.559908371657E+03   -0.36335E-03   -0.18129E-04  4428   0.351E-02    0.131E-02
DAV:   8    -0.559908628034E+03   -0.25638E-03   -0.43464E-05  4692   0.151E-02    0.922E-03
DAV:   9    -0.559908954040E+03   -0.32601E-03   -0.43498E-05  4344   0.109E-02    0.530E-03
DAV:  10    -0.559909165178E+03   -0.21114E-03   -0.30007E-05  4548   0.854E-03    0.349E-03
DAV:  11    -0.559909346456E+03   -0.18128E-03   -0.35187E-05  4380   0.805E-03    0.150E-03
DAV:  12    -0.559909372591E+03   -0.26136E-04   -0.21141E-06  4248   0.249E-03    0.998E-04
DAV:  13    -0.559909393621E+03   -0.21030E-04   -0.10358E-06  3732   0.163E-03    0.600E-04
DAV:  14    -0.559909403878E+03   -0.10257E-04   -0.25952E-07  3720   0.885E-04    0.355E-04
DAV:  15    -0.559909410065E+03   -0.61877E-05   -0.17633E-07  3672   0.607E-04    0.205E-04
DAV:  16    -0.559909412377E+03   -0.23120E-05   -0.21606E-08  2964   0.270E-04    0.111E-04
DAV:  17    -0.559909413974E+03   -0.15964E-05   -0.15711E-08  2616   0.213E-04    0.683E-05
DAV:  18    -0.559909414947E+03   -0.97357E-06   -0.65006E-09  2640   0.147E-04    0.364E-05
DAV:  19    -0.559909415461E+03   -0.51344E-06   -0.71629E-10  2592   0.105E-04    0.261E-05
DAV:  20    -0.559909415719E+03   -0.25879E-06    0.15288E-09  2592   0.733E-05    0.122E-05
DAV:  21    -0.559909415871E+03   -0.15176E-06    0.29568E-09  2604   0.495E-05    0.905E-06
DAV:  22    -0.559909415935E+03   -0.63897E-07    0.34725E-09  2664   0.320E-05
   3 F= -.56690738E+03 E0= -.56690738E+03  d E =-.165989E+01
       N       E                     dE             d eps       ncg     rms          rms(c)
DAV:   1    -0.559206356347E+03    0.70306E+00   -0.10465E+02  4056   0.301E+01    0.178E+00
DAV:   2    -0.559367998027E+03   -0.16164E+00   -0.21141E+00  4860   0.392E+00    0.144E+00
DAV:   3    -0.559354398103E+03    0.13600E-01   -0.87403E-02  5424   0.800E-01    0.103E+00
DAV:   4    -0.559342478835E+03    0.11919E-01   -0.20209E-02  4512   0.419E-01    0.253E-01
DAV:   5    -0.559341883730E+03    0.59511E-03   -0.55979E-03  4800   0.201E-01    0.107E-01
DAV:   6    -0.559341931893E+03   -0.48163E-04   -0.81248E-04  4692   0.767E-02    0.589E-02
DAV:   7    -0.559342024079E+03   -0.92186E-04   -0.10298E-04  4548   0.281E-02    0.188E-02
DAV:   8    -0.559342118721E+03   -0.94642E-04   -0.28873E-05  4452   0.139E-02    0.651E-03
DAV:   9    -0.559342197795E+03   -0.79074E-04   -0.78513E-06  4356   0.629E-03    0.317E-03
DAV:  10    -0.559342257560E+03   -0.59765E-04   -0.35280E-06  4512   0.316E-03    0.207E-03
DAV:  11    -0.559342326455E+03   -0.68895E-04   -0.62165E-06  4464   0.361E-03    0.129E-03
DAV:  12    -0.559342373829E+03   -0.47374E-04   -0.49488E-06  3900   0.297E-03    0.774E-04
DAV:  13    -0.559342390873E+03   -0.17044E-04   -0.12715E-06  3828   0.154E-03    0.355E-04
DAV:  14    -0.559342397115E+03   -0.62426E-05   -0.24038E-07  3708   0.766E-04    0.277E-04
DAV:  15    -0.559342400904E+03   -0.37889E-05   -0.68774E-08  3036   0.460E-04    0.129E-04
DAV:  16    -0.559342402700E+03   -0.17956E-05   -0.72579E-08  2952   0.349E-04    0.816E-05
DAV:  17    -0.559342403430E+03   -0.73071E-06   -0.10857E-08  2712   0.196E-04    0.423E-05
DAV:  18    -0.559342403699E+03   -0.26881E-06   -0.16727E-09  2652   0.112E-04    0.254E-05
DAV:  19    -0.559342403959E+03   -0.26024E-06    0.42569E-10  2604   0.840E-05    0.140E-05
DAV:  20    -0.559342404090E+03   -0.13032E-06    0.24283E-09  2580   0.546E-05    0.860E-06
DAV:  21    -0.559342404162E+03   -0.72283E-07    0.32413E-09  2592   0.350E-05
   4 F= -.56625950E+03 E0= -.56625950E+03  d E =0.647876E+00
       N       E                     dE             d eps       ncg     rms          rms(c)
DAV:   1    -0.560173337866E+03   -0.83093E+00   -0.44658E+01  4056   0.197E+01    0.202E+00
DAV:   2    -0.560216071501E+03   -0.42734E-01   -0.96440E-01  4944   0.269E+00    0.124E+00
DAV:   3    -0.560189361464E+03    0.26710E-01   -0.75062E-02  4572   0.791E-01    0.396E-01
DAV:   4    -0.560187093124E+03    0.22683E-02   -0.11518E-02  4704   0.277E-01    0.138E-01
DAV:   5    -0.560186943144E+03    0.14998E-03   -0.12323E-03  4932   0.905E-02    0.676E-02
DAV:   6    -0.560186944072E+03   -0.92854E-06   -0.96967E-05  4596   0.281E-02    0.255E-02
DAV:   7    -0.560186988672E+03   -0.44600E-04   -0.33117E-05  4392   0.139E-02    0.699E-03
DAV:   8    -0.560187044642E+03   -0.55970E-04   -0.57519E-06  4656   0.576E-03    0.445E-03
DAV:   9    -0.560187129257E+03   -0.84615E-04   -0.61162E-06  4224   0.434E-03    0.217E-03
DAV:  10    -0.560187172404E+03   -0.43147E-04   -0.14186E-06  4200   0.207E-03    0.168E-03
DAV:  11    -0.560187240704E+03   -0.68300E-04   -0.49724E-06  4176   0.291E-03    0.947E-04
DAV:  12    -0.560187258366E+03   -0.17662E-04   -0.33949E-07  3792   0.921E-04    0.473E-04
DAV:  13    -0.560187275766E+03   -0.17400E-04   -0.26676E-07  3600   0.670E-04    0.280E-04
DAV:  14    -0.560187284204E+03   -0.84378E-05   -0.38211E-08  2976   0.312E-04    0.178E-04
DAV:  15    -0.560187290389E+03   -0.61857E-05   -0.49066E-08  2916   0.287E-04    0.108E-04
DAV:  16    -0.560187292847E+03   -0.24575E-05   -0.14843E-08  2976   0.188E-04    0.511E-05
DAV:  17    -0.560187293773E+03   -0.92662E-06   -0.25917E-09  2724   0.123E-04    0.355E-05
DAV:  18    -0.560187294584E+03   -0.81069E-06   -0.14417E-09  2676   0.107E-04    0.174E-05
DAV:  19    -0.560187294838E+03   -0.25336E-06    0.23058E-09  2652   0.630E-05    0.111E-05
DAV:  20    -0.560187295035E+03   -0.19741E-06    0.28631E-09  2484   0.499E-05    0.679E-06
DAV:  21    -0.560187295093E+03   -0.58229E-07    0.36922E-09  2592   0.311E-05
   5 F= -.56720341E+03 E0= -.56720341E+03  d E =-.943903E+00
       N       E                     dE             d eps       ncg     rms          rms(c)
DAV:   1    -0.560234000059E+03   -0.46705E-01   -0.43569E+00  4068   0.603E+00    0.740E-01
DAV:   2    -0.560232072515E+03    0.19275E-02   -0.12162E-01  4620   0.958E-01    0.466E-01
DAV:   3    -0.560226652764E+03    0.54198E-02   -0.17367E-02  4476   0.394E-01    0.157E-01
DAV:   4    -0.560226486574E+03    0.16619E-03   -0.35586E-03  4536   0.152E-01    0.705E-02
DAV:   5    -0.560226483473E+03    0.31009E-05   -0.29335E-04  4776   0.462E-02    0.288E-02
DAV:   6    -0.560226484395E+03   -0.92149E-06   -0.41700E-05  4296   0.182E-02    0.109E-02
DAV:   7    -0.560226488063E+03   -0.36682E-05   -0.45263E-06  5052   0.534E-03    0.269E-03
DAV:   8    -0.560226490773E+03   -0.27100E-05   -0.46231E-07  4104   0.191E-03    0.110E-03
DAV:   9    -0.560226493394E+03   -0.26207E-05   -0.10879E-07  2916   0.853E-04    0.441E-04
DAV:  10    -0.560226495204E+03   -0.18107E-05   -0.61338E-08  2808   0.509E-04    0.270E-04
DAV:  11    -0.560226497559E+03   -0.23543E-05   -0.70016E-08  2856   0.435E-04    0.140E-04
DAV:  12    -0.560226499073E+03   -0.15140E-05   -0.53397E-08  2784   0.332E-04    0.113E-04
DAV:  13    -0.560226500347E+03   -0.12739E-05   -0.49021E-08  2796   0.308E-04    0.523E-05
DAV:  14    -0.560226500894E+03   -0.54702E-06   -0.23875E-08  2676   0.236E-04    0.357E-05
DAV:  15    -0.560226501131E+03   -0.23760E-06   -0.85558E-09  2724   0.158E-04    0.212E-05
DAV:  16    -0.560226501257E+03   -0.12594E-06   -0.22087E-09  2580   0.114E-04    0.134E-05
DAV:  17    -0.560226501346E+03   -0.89047E-07    0.95677E-10  2508   0.772E-05
   6 F= -.56724961E+03 E0= -.56724961E+03  d E =-.462007E-01
       N       E                     dE             d eps       ncg     rms          rms(c)
DAV:   1    -0.560249462009E+03   -0.22961E-01   -0.65637E+00  4056   0.742E+00    0.630E-01
DAV:   2    -0.560254528611E+03   -0.50666E-02   -0.13997E-01  4896   0.101E+00    0.398E-01
DAV:   3    -0.560252145781E+03    0.23828E-02   -0.12553E-02  4800   0.306E-01    0.201E-01
DAV:   4    -0.560251764225E+03    0.38156E-03   -0.16896E-03  4332   0.111E-01    0.822E-02
DAV:   5    -0.560251739631E+03    0.24594E-04   -0.30367E-04  4560   0.492E-02    0.196E-02
DAV:   6    -0.560251738750E+03    0.88068E-06   -0.50985E-05  4428   0.201E-02    0.108E-02
DAV:   7    -0.560251740529E+03   -0.17792E-05   -0.44100E-06  4752   0.556E-03    0.301E-03
DAV:   8    -0.560251742000E+03   -0.14703E-05   -0.53977E-07  4512   0.205E-03    0.122E-03
DAV:   9    -0.560251743666E+03   -0.16667E-05   -0.11602E-07  2748   0.946E-04    0.309E-04
DAV:  10    -0.560251744567E+03   -0.90072E-06   -0.31326E-08  2712   0.429E-04    0.213E-04
DAV:  11    -0.560251745783E+03   -0.12159E-05   -0.35126E-08  2760   0.346E-04    0.109E-04
DAV:  12    -0.560251746522E+03   -0.73890E-06   -0.23529E-08  2712   0.246E-04    0.767E-05
DAV:  13    -0.560251746917E+03   -0.39512E-06   -0.80549E-09  2628   0.179E-04    0.417E-05
DAV:  14    -0.560251747339E+03   -0.42238E-06   -0.15210E-08  2772   0.181E-04    0.254E-05
DAV:  15    -0.560251747430E+03   -0.91066E-07   -0.37420E-10  2700   0.104E-04
   7 F= -.56727600E+03 E0= -.56727600E+03  d E =-.263941E-01
       N       E                     dE             d eps       ncg     rms          rms(c)
DAV:   1    -0.560287596202E+03   -0.35849E-01   -0.23354E+00  4080   0.441E+00    0.414E-01
DAV:   2    -0.560288802649E+03   -0.12064E-02   -0.53909E-02  4932   0.640E-01    0.264E-01
DAV:   3    -0.560287493969E+03    0.13087E-02   -0.57791E-03  4776   0.214E-01    0.114E-01
DAV:   4    -0.560287370077E+03    0.12389E-03   -0.96773E-04  4524   0.821E-02    0.461E-02
DAV:   5    -0.560287376952E+03   -0.68750E-05   -0.14031E-04  4680   0.320E-02    0.157E-02
DAV:   6    -0.560287373907E+03    0.30447E-05   -0.23931E-05  4296   0.137E-02    0.822E-03
DAV:   7    -0.560287374433E+03   -0.52546E-06   -0.27773E-06  4812   0.414E-03    0.179E-03
DAV:   8    -0.560287374609E+03   -0.17620E-06   -0.19620E-07  2916   0.158E-03    0.748E-04
DAV:   9    -0.560287374830E+03   -0.22095E-06   -0.10024E-07  2556   0.885E-04    0.249E-04
DAV:  10    -0.560287374947E+03   -0.11681E-06   -0.16554E-08  2736   0.424E-04    0.135E-04
DAV:  11    -0.560287375096E+03   -0.14912E-06   -0.52155E-09  2544   0.244E-04    0.529E-05
DAV:  12    -0.560287375175E+03   -0.79341E-07    0.40688E-10  2652   0.144E-04
   8 F= -.56731506E+03 E0= -.56731506E+03  d E =-.390583E-01
       N       E                     dE             d eps       ncg     rms          rms(c)
DAV:   1    -0.560295709243E+03   -0.83341E-02   -0.47006E+00  4056   0.619E+00    0.482E-01
DAV:   2    -0.560300180903E+03   -0.44717E-02   -0.91437E-02  4596   0.814E-01    0.321E-01
DAV:   3    -0.560298846252E+03    0.13347E-02   -0.69657E-03  4716   0.238E-01    0.174E-01
DAV:   4    -0.560298561036E+03    0.28522E-03   -0.13542E-03  4296   0.104E-01    0.618E-02
DAV:   5    -0.560298556676E+03    0.43597E-05   -0.20331E-04  4644   0.403E-02    0.204E-02
DAV:   6    -0.560298557894E+03   -0.12181E-05   -0.40199E-05  4356   0.168E-02    0.957E-03
DAV:   7    -0.560298559811E+03   -0.19167E-05   -0.32721E-06  4860   0.508E-03    0.335E-03
DAV:   8    -0.560298561698E+03   -0.18871E-05   -0.62041E-07  4356   0.206E-03    0.992E-04
DAV:   9    -0.560298563294E+03   -0.15954E-05   -0.68331E-08  2736   0.711E-04    0.323E-04
DAV:  10    -0.560298564496E+03   -0.12020E-05   -0.32784E-08  2736   0.386E-04    0.181E-04
DAV:  11    -0.560298566013E+03   -0.15176E-05   -0.35039E-08  2748   0.327E-04    0.110E-04
DAV:  12    -0.560298567070E+03   -0.10573E-05   -0.28000E-08  2712   0.255E-04    0.702E-05
DAV:  13    -0.560298568073E+03   -0.10023E-05   -0.34329E-08  2796   0.255E-04    0.372E-05
DAV:  14    -0.560298568445E+03   -0.37222E-06   -0.12220E-08  2628   0.185E-04    0.234E-05
DAV:  15    -0.560298568602E+03   -0.15715E-06   -0.33786E-09  2532   0.121E-04    0.128E-05
DAV:  16    -0.560298568678E+03   -0.76034E-07    0.61526E-10  2664   0.868E-05
   9 F= -.56733151E+03 E0= -.56733151E+03  d E =-.164512E-01
       N       E                     dE             d eps       ncg     rms          rms(c)
DAV:   1    -0.560316612291E+03   -0.18044E-01   -0.12156E+00  4104   0.320E+00    0.277E-01
DAV:   2    -0.560317542617E+03   -0.93033E-03   -0.29988E-02  4860   0.483E-01    0.180E-01
DAV:   3    -0.560317010958E+03    0.53166E-03   -0.35108E-03  4512   0.160E-01    0.864E-02
DAV:   4    -0.560316945528E+03    0.65430E-04   -0.48630E-04  4380   0.582E-02    0.422E-02
DAV:   5    -0.560316943206E+03    0.23223E-05   -0.88121E-05  4392   0.277E-02    0.132E-02
DAV:   6    -0.560316938688E+03    0.45181E-05   -0.26782E-05  4344   0.150E-02    0.694E-03
DAV:   7    -0.560316939164E+03   -0.47604E-06   -0.30351E-06  4872   0.427E-03    0.164E-03
DAV:   8    -0.560316939575E+03   -0.41079E-06   -0.14707E-07  2604   0.119E-03    0.978E-04
DAV:   9    -0.560316940213E+03   -0.63793E-06   -0.10225E-07  2616   0.842E-04    0.241E-04
DAV:  10    -0.560316940607E+03   -0.39400E-06   -0.23299E-08  2604   0.460E-04    0.162E-04
DAV:  11    -0.560316941313E+03   -0.70670E-06   -0.26214E-08  2580   0.341E-04    0.113E-04
DAV:  12    -0.560316941816E+03   -0.50290E-06   -0.10449E-08  2556   0.230E-04    0.743E-05
DAV:  13    -0.560316942373E+03   -0.55719E-06   -0.19011E-08  2688   0.210E-04    0.341E-05
DAV:  14    -0.560316942621E+03   -0.24777E-06   -0.41327E-09  2520   0.144E-04    0.261E-05
DAV:  15    -0.560316942793E+03   -0.17177E-06   -0.36003E-10  2580   0.964E-05    0.132E-05
DAV:  16    -0.560316942889E+03   -0.96214E-07    0.19140E-09  2568   0.703E-05
  10 F= -.56735108E+03 E0= -.56735108E+03  d E =-.195724E-01
       N       E                     dE             d eps       ncg     rms          rms(c)
DAV:   1    -0.560327878962E+03   -0.10936E-01   -0.27590E+00  4056   0.470E+00    0.353E-01
DAV:   2    -0.560330387307E+03   -0.25083E-02   -0.50494E-02  4692   0.603E-01    0.237E-01
DAV:   3    -0.560329695751E+03    0.69156E-03   -0.37504E-03  4956   0.175E-01    0.121E-01
DAV:   4    -0.560329560159E+03    0.13559E-03   -0.70685E-04  4356   0.741E-02    0.399E-02
DAV:   5    -0.560329564095E+03   -0.39353E-05   -0.10986E-04  4620   0.281E-02    0.153E-02
DAV:   6    -0.560329562014E+03    0.20804E-05   -0.19463E-05  4500   0.122E-02    0.705E-03
DAV:   7    -0.560329562248E+03   -0.23332E-06   -0.21695E-06  4704   0.398E-03    0.225E-03
DAV:   8    -0.560329562502E+03   -0.25441E-06   -0.30187E-07  2976   0.156E-03    0.893E-04
DAV:   9    -0.560329562817E+03   -0.31485E-06   -0.72817E-08  2700   0.748E-04    0.260E-04
DAV:  10    -0.560329563065E+03   -0.24842E-06   -0.14478E-08  2556   0.381E-04    0.157E-04
DAV:  11    -0.560329563449E+03   -0.38410E-06   -0.15208E-08  2580   0.271E-04    0.860E-05
DAV:  12    -0.560329563710E+03   -0.26114E-06   -0.36036E-09  2580   0.177E-04    0.558E-05
DAV:  13    -0.560329564005E+03   -0.29475E-06   -0.83627E-09  2652   0.157E-04    0.304E-05
DAV:  14    -0.560329564162E+03   -0.15704E-06   -0.10280E-09  2532   0.111E-04    0.197E-05
DAV:  15    -0.560329564287E+03   -0.12448E-06   -0.39381E-10  2520   0.883E-05    0.110E-05
DAV:  16    -0.560329564337E+03   -0.49906E-07    0.26059E-09  2724   0.617E-05
  11 F= -.56736659E+03 E0= -.56736659E+03  d E =-.155065E-01
       N       E                     dE             d eps       ncg     rms          rms(c)
DAV:   1    -0.560338749920E+03   -0.91856E-02   -0.60898E-01  4116   0.222E+00    0.184E-01
DAV:   2    -0.560339208471E+03   -0.45855E-03   -0.13239E-02  4896   0.322E-01    0.121E-01
DAV:   3    -0.560338975509E+03    0.23296E-03   -0.16598E-03  4656   0.109E-01    0.579E-02
DAV:   4    -0.560338954567E+03    0.20942E-04   -0.21683E-04  4404   0.380E-02    0.292E-02
DAV:   5    -0.560338952987E+03    0.15799E-05   -0.33243E-05  4644   0.159E-02    0.837E-03
DAV:   6    -0.560338951368E+03    0.16188E-05   -0.10895E-05  4464   0.923E-03    0.435E-03
DAV:   7    -0.560338951478E+03   -0.11022E-06   -0.12543E-06  4788   0.276E-03    0.931E-04
DAV:   8    -0.560338951643E+03   -0.16548E-06   -0.49022E-08  2592   0.726E-04    0.416E-04
DAV:   9    -0.560338951813E+03   -0.17000E-06   -0.16604E-08  2592   0.394E-04    0.119E-04
DAV:  10    -0.560338951929E+03   -0.11520E-06   -0.22323E-09  2628   0.225E-04    0.662E-05
DAV:  11    -0.560338952089E+03   -0.16008E-06   -0.76451E-10  2532   0.159E-04    0.320E-05
DAV:  12    -0.560338952207E+03   -0.11859E-06    0.13087E-09  2592   0.108E-04    0.227E-05
DAV:  13    -0.560338952321E+03   -0.11416E-06    0.13318E-09  2592   0.868E-05    0.141E-05
DAV:  14    -0.560338952417E+03   -0.95009E-07    0.13759E-09  2568   0.758E-05
  12 F= -.56737617E+03 E0= -.56737617E+03  d E =-.957920E-02
       N       E                     dE             d eps       ncg     rms          rms(c)
DAV:   1    -0.560344578959E+03   -0.56266E-02   -0.15777E+00  4056   0.354E+00    0.245E-01
DAV:   2    -0.560346156358E+03   -0.15774E-02   -0.27498E-02  4740   0.437E-01    0.169E-01
DAV:   3    -0.560345847260E+03    0.30910E-03   -0.16766E-03  4572   0.118E-01    0.869E-02
DAV:   4    -0.560345787622E+03    0.59638E-04   -0.31819E-04  4428   0.504E-02    0.261E-02
DAV:   5    -0.560345790213E+03   -0.25913E-05   -0.55585E-05  4596   0.192E-02    0.936E-03
DAV:   6    -0.560345789098E+03    0.11149E-05   -0.77464E-06  4560   0.766E-03    0.447E-03
DAV:   7    -0.560345789300E+03   -0.20142E-06   -0.11130E-06  4608   0.276E-03    0.134E-03
DAV:   8    -0.560345789835E+03   -0.53488E-06   -0.13510E-07  2556   0.106E-03    0.556E-04
DAV:   9    -0.560345790519E+03   -0.68481E-06   -0.50384E-08  2628   0.555E-04    0.234E-04
DAV:  10    -0.560345791085E+03   -0.56509E-06   -0.12606E-08  2520   0.302E-04    0.167E-04
DAV:  11    -0.560345792050E+03   -0.96512E-06   -0.31968E-08  2748   0.285E-04    0.954E-05
DAV:  12    -0.560345792720E+03   -0.67070E-06   -0.13087E-08  2604   0.205E-04    0.597E-05
DAV:  13    -0.560345793295E+03   -0.57426E-06   -0.16592E-08  2712   0.188E-04    0.339E-05
DAV:  14    -0.560345793590E+03   -0.29490E-06   -0.40949E-09  2508   0.132E-04    0.195E-05
DAV:  15    -0.560345793745E+03   -0.15532E-06    0.20456E-10  2628   0.864E-05    0.124E-05
DAV:  16    -0.560345793901E+03   -0.15632E-06    0.15421E-09  2640   0.690E-05    0.731E-06
DAV:  17    -0.560345793954E+03   -0.53285E-07    0.30346E-09  2676   0.463E-05
  13 F= -.56738684E+03 E0= -.56738684E+03  d E =-.106728E-01
       N       E                     dE             d eps       ncg     rms          rms(c)
DAV:   1    -0.560355441145E+03   -0.96472E-02   -0.39135E+00  4056   0.559E+00    0.366E-01
DAV:   2    -0.560359637717E+03   -0.41966E-02   -0.64404E-02  4824   0.663E-01    0.255E-01
DAV:   3    -0.560358983924E+03    0.65379E-03   -0.34718E-03  4836   0.170E-01    0.135E-01
DAV:   4    -0.560358845694E+03    0.13823E-03   -0.70168E-04  4332   0.729E-02    0.403E-02
DAV:   5    -0.560358849264E+03   -0.35699E-05   -0.11496E-04  4596   0.275E-02    0.142E-02
DAV:   6    -0.560358846805E+03    0.24590E-05   -0.18837E-05  4524   0.121E-02    0.636E-03
DAV:   7    -0.560358847412E+03   -0.60727E-06   -0.26370E-06  4656   0.423E-03    0.203E-03
DAV:   8    -0.560358848554E+03   -0.11416E-05   -0.30501E-07  3192   0.153E-03    0.910E-04
DAV:   9    -0.560358849988E+03   -0.14336E-05   -0.10449E-07  2760   0.762E-04    0.338E-04
DAV:  10    -0.560358851130E+03   -0.11423E-05   -0.30470E-08  2556   0.405E-04    0.235E-04
DAV:  11    -0.560358853102E+03   -0.19723E-05   -0.77497E-08  2904   0.402E-04    0.132E-04
DAV:  12    -0.560358854284E+03   -0.11821E-05   -0.28739E-08  2724   0.269E-04    0.833E-05
DAV:  13    -0.560358855364E+03   -0.10793E-05   -0.35477E-08  2712   0.254E-04    0.413E-05
DAV:  14    -0.560358855803E+03   -0.43899E-06   -0.82795E-09  2592   0.169E-04    0.284E-05
DAV:  15    -0.560358856127E+03   -0.32462E-06   -0.30909E-09  2604   0.114E-04    0.155E-05
DAV:  16    -0.560358856308E+03   -0.18044E-06    0.83436E-10  2616   0.839E-05    0.103E-05
DAV:  17    -0.560358856414E+03   -0.10618E-06    0.23029E-09  2628   0.577E-05    0.514E-06
DAV:  18    -0.560358856454E+03   -0.40091E-07    0.33205E-09  2616   0.402E-05
  14 F= -.56740271E+03 E0= -.56740271E+03  d E =-.158708E-01
       N       E                     dE             d eps       ncg     rms          rms(c)
DAV:   1    -0.560367991143E+03   -0.91347E-02   -0.37232E+00  4056   0.541E+00    0.368E-01
DAV:   2    -0.560371759069E+03   -0.37679E-02   -0.62663E-02  4824   0.652E-01    0.258E-01
DAV:   3    -0.560370996449E+03    0.76262E-03   -0.33126E-03  4680   0.170E-01    0.133E-01
DAV:   4    -0.560370852497E+03    0.14395E-03   -0.82233E-04  4392   0.809E-02    0.352E-02
DAV:   5    -0.560370860327E+03   -0.78299E-05   -0.14328E-04  4572   0.307E-02    0.144E-02
DAV:   6    -0.560370858249E+03    0.20786E-05   -0.18289E-05  4488   0.117E-02    0.643E-03
DAV:   7    -0.560370858314E+03   -0.65389E-07   -0.22512E-06  4596   0.410E-03    0.181E-03
DAV:   8    -0.560370858818E+03   -0.50447E-06   -0.32100E-07  3252   0.155E-03    0.703E-04
DAV:   9    -0.560370859410E+03   -0.59205E-06   -0.55581E-08  2592   0.638E-04    0.286E-04
DAV:  10    -0.560370860005E+03   -0.59504E-06   -0.17604E-08  2544   0.344E-04    0.175E-04
DAV:  11    -0.560370860830E+03   -0.82481E-06   -0.24375E-08  2760   0.277E-04    0.103E-04
DAV:  12    -0.560370861612E+03   -0.78173E-06   -0.18136E-08  2616   0.224E-04    0.623E-05
DAV:  13    -0.560370862197E+03   -0.58479E-06   -0.14934E-08  2760   0.190E-04    0.337E-05
DAV:  14    -0.560370862531E+03   -0.33422E-06   -0.70201E-09  2568   0.147E-04    0.191E-05
DAV:  15    -0.560370862703E+03   -0.17219E-06   -0.33860E-10  2628   0.101E-04    0.117E-05
DAV:  16    -0.560370862830E+03   -0.12695E-06    0.16040E-09  2604   0.697E-05    0.719E-06
DAV:  17    -0.560370862886E+03   -0.56039E-07    0.29834E-09  2688   0.492E-05
  15 F= -.56741583E+03 E0= -.56741583E+03  d E =-.131167E-01
       N       E                     dE             d eps       ncg     rms          rms(c)
DAV:   1    -0.560373064391E+03   -0.22016E-02   -0.23002E-01  4116   0.135E+00    0.101E-01
DAV:   2    -0.560373285232E+03   -0.22084E-03   -0.45697E-03  4824   0.179E-01    0.687E-02
DAV:   3    -0.560373210002E+03    0.75230E-04   -0.34592E-04  4632   0.511E-02    0.340E-02
DAV:   4    -0.560373198286E+03    0.11716E-04   -0.53986E-05  4452   0.196E-02    0.124E-02
DAV:   5    -0.560373197305E+03    0.98041E-06   -0.87420E-06  4608   0.786E-03    0.377E-03
DAV:   6    -0.560373197237E+03    0.67805E-07   -0.17067E-06  4392   0.357E-03    0.186E-03
DAV:   7    -0.560373197504E+03   -0.26691E-06   -0.16741E-07  2760   0.109E-03    0.541E-04
DAV:   8    -0.560373197957E+03   -0.45295E-06   -0.42237E-08  2496   0.552E-04    0.252E-04
DAV:   9    -0.560373198648E+03   -0.69080E-06   -0.33674E-08  2652   0.392E-04    0.138E-04
DAV:  10    -0.560373199182E+03   -0.53399E-06   -0.12888E-08  2544   0.249E-04    0.986E-05
DAV:  11    -0.560373199998E+03   -0.81634E-06   -0.31366E-08  2676   0.260E-04    0.473E-05
DAV:  12    -0.560373200345E+03   -0.34666E-06   -0.71187E-09  2568   0.172E-04    0.293E-05
DAV:  13    -0.560373200592E+03   -0.24732E-06   -0.31952E-09  2580   0.122E-04    0.171E-05
DAV:  14    -0.560373200740E+03   -0.14740E-06    0.89782E-10  2580   0.866E-05    0.116E-05
DAV:  15    -0.560373200883E+03   -0.14287E-06    0.17259E-09  2544   0.651E-05    0.577E-06
DAV:  16    -0.560373200934E+03   -0.51532E-07    0.31175E-09  2688   0.463E-05
  16 F= -.56741639E+03 E0= -.56741639E+03  d E =-.563316E-03
       N       E                     dE             d eps       ncg     rms          rms(c)
DAV:   1    -0.560374920891E+03   -0.17200E-02   -0.72457E-02  4224   0.756E-01    0.549E-02
DAV:   2    -0.560374990223E+03   -0.69332E-04   -0.13658E-03  4740   0.976E-02    0.383E-02
DAV:   3    -0.560374967345E+03    0.22878E-04   -0.10826E-04  4632   0.288E-02    0.171E-02
DAV:   4    -0.560374965182E+03    0.21630E-05   -0.17248E-05  4428   0.107E-02    0.590E-03
DAV:   5    -0.560374965109E+03    0.72996E-07   -0.20046E-06  4680   0.368E-03    0.194E-03
DAV:   6    -0.560374965014E+03    0.95344E-07   -0.32941E-07  3372   0.160E-03
  17 F= -.56741820E+03 E0= -.56741820E+03  d E =-.180627E-02
