 vasp.5.4.4.18Apr17-6-g9f103f2a35 (build Jan 12 2023 11:40:15) complex          
  
 executed on             LinuxIFC date 2023.12.04  09:37:52
 running on   48 total cores
 distrk:  each k-point on   48 cores,    1 groups
 distr:  one band on NCORES_PER_BAND=   8 cores,    6 groups


--------------------------------------------------------------------------------------------------------


 INCAR:
 POTCAR:    PAW_PBE C 08Apr2002                   
 POTCAR:    PAW_PBE C 08Apr2002                   
   SHA256 =  253f7b50bb8d59471dbedb8285d89021f4a42ed1a2c5d38a03a736e69125dd95 C/
   COPYR  = (c) Copyright 08Apr2002 Georg Kresse                                
   COPYR  = This file is part of the software VASP. Any use, copying, and all ot
   COPYR  = If you do not have a valid VASP license, you may not use, copy or di
   VRHFIN =C: s2p2                                                              
   LEXCH  = PE                                                                  
   EATOM  =   147.1560 eV,   10.8157 Ry                                         
                                                                                
   TITEL  = PAW_PBE C 08Apr2002                                                 
   LULTRA =        F    use ultrasoft PP ?                                      
   IUNSCR =        1    unscreen: 0-lin 1-nonlin 2-no                           
   RPACOR =    1.200    partial core radius                                     
   POMASS =   12.011; ZVAL   =    4.000    mass and valenz                      
   RCORE  =    1.500    outmost cutoff radius                                   
   RWIGS  =    1.630; RWIGS  =    0.863    wigner-seitz radius (au A)           
   ENMAX  =  400.000; ENMIN  =  300.000 eV                                      
   ICORE  =        2    local potential                                         
   LCOR   =        T    correct aug charges                                     
   LPAW   =        T    paw PP                                                  
   EAUG   =  644.873                                                            
   DEXC   =    0.000                                                            
   RMAX   =    1.529    core radius for proj-oper                               
   RAUG   =    1.300    factor for augmentation sphere                          
   RDEP   =    1.501    radius for radial grids                                 
   RDEPT  =    1.300    core radius for aug-charge                              
                                                                                
   Atomic configuration                                                         
    4 entries                                                                   
     n  l   j            E        occ.                                          
     1  0  0.50      -273.3789   2.0000                                         
     2  0  0.50       -13.7508   2.0000                                         
     2  1  0.50        -5.2854   2.0000                                         
     3  2  1.50        -5.4423   0.0000                                         
   Description                                                                  
     l       E           TYP  RCUT    TYP  RCUT                                 
     0    -13.7508458     23  1.200                                             
     0     -8.2022199     23  1.200                                             
     1     -5.2854383     23  1.500                                             
     1     34.0145650     23  1.500                                             
     2     -5.4423304      7  1.500                                             
  local pseudopotential read in
  partial core-charges read in
  partial kinetic energy density read in
  atomic valenz-charges read in
  non local Contribution for L=           0  read in
    real space projection operators read in
  non local Contribution for L=           0  read in
    real space projection operators read in
  non local Contribution for L=           1  read in
    real space projection operators read in
  non local Contribution for L=           1  read in
    real space projection operators read in
    PAW grid and wavefunctions read in
 
   number of l-projection  operators is LMAX  =           4
   number of lm-projection operators is LMMAX =           8
 

 ----------------------------------------------------------------------------- 
|                                                                             |
|  ADVICE TO THIS USER RUNNING 'VASP/VAMP'   (HEAR YOUR MASTER'S VOICE ...):  |
|                                                                             |
|      You have a (more or less) 'large supercell' and for larger cells       |
|      it might be more efficient to use real space projection opertators     |
|      So try LREAL= Auto  in the INCAR   file.                               |
|      Mind:          For very  accurate calculation you might also keep the  |
|      reciprocal projection scheme          (i.e. LREAL=.FALSE.)             |
|                                                                             |
 ----------------------------------------------------------------------------- 

  PAW_PBE C 08Apr2002                   :
 energy of atom  1       EATOM= -147.1560
 kinetic energy error for atom=    0.0012 (will be added to EATOM!!)
 
 
 POSCAR: POSCAR file written by OVITO Basic 3.7.1
  positions in direct lattice
  velocities in cartesian coordinates
 exchange correlation table for  LEXCH =        8
   RHO(1)=    0.500       N(1)  =     2000
   RHO(2)=  100.500       N(2)  =     4000
 


--------------------------------------------------------------------------------------------------------


 ion  position               nearest neighbor table
   1  0.997  0.997  0.384-   2 1.39  48 1.43  14 1.43
   2  0.078  0.078  0.383-   1 1.39  17 1.42   5 1.42
   3  0.082  0.082  0.454-   4 1.40  50 1.44  16 1.44
   4  0.164  0.164  0.451-   3 1.40  19 1.43   7 1.43
   5  0.002  0.244  0.384-   6 1.39   2 1.42  52 1.43
   6  0.096  0.312  0.385-   5 1.39   9 1.46
   7  0.081  0.332  0.450-   8 1.41  54 1.42   4 1.43
   8  0.162  0.413  0.445-   7 1.41  11 1.42  22 1.48
   9  0.015  0.483  0.387-  10 1.45   6 1.46  56 1.49
  10  0.091  0.576  0.389-  23 1.42  13 1.44   9 1.45
  11  0.090  0.576  0.451-   8 1.42  58 1.44  12 1.45
  12  0.183  0.651  0.453-  11 1.45  25 1.46  15 1.49
  13  0.001  0.745  0.386-  14 1.42  10 1.44  60 1.45
  14  0.083  0.829  0.385-  13 1.42  27 1.42   1 1.43
  15  0.090  0.826  0.454-  16 1.41  62 1.47  12 1.49
  16  0.169  0.913  0.455-  15 1.41  29 1.42   3 1.44
  17  0.244  0.002  0.384-  18 1.39   2 1.42  28 1.43
  18  0.313  0.096  0.385-  17 1.39  31 1.46
  19  0.332  0.081  0.450-  20 1.41  30 1.42   4 1.43
  20  0.413  0.162  0.445-  19 1.41  33 1.42  22 1.48
  21  0.350  0.349  0.407-  22 1.38  35 1.48  23 1.48
  22  0.317  0.317  0.433-  21 1.38   8 1.48  20 1.48
  23  0.253  0.504  0.395-  24 1.41  10 1.42  21 1.48
  24  0.335  0.586  0.390-  23 1.41  27 1.42  39 1.43
  25  0.354  0.570  0.455-  26 1.39  12 1.46
  26  0.422  0.664  0.456-  25 1.39  41 1.42  29 1.43
  27  0.249  0.750  0.385-  14 1.42  24 1.42  28 1.42
  28  0.332  0.835  0.384-  43 1.42  27 1.42  17 1.43
  29  0.335  0.832  0.456-  16 1.42  30 1.42  26 1.43
  30  0.417  0.916  0.455-  45 1.42  19 1.42  29 1.42
  31  0.483  0.015  0.387-  32 1.45  18 1.46  44 1.49
  32  0.576  0.091  0.389-  35 1.42  47 1.44  31 1.45
  33  0.576  0.090  0.451-  20 1.42  46 1.44  34 1.45
  34  0.651  0.183  0.453-  33 1.45  37 1.46  49 1.49
  35  0.504  0.253  0.395-  36 1.41  32 1.42  21 1.48
  36  0.586  0.335  0.390-  35 1.41  51 1.42  39 1.43
  37  0.570  0.354  0.455-  38 1.39  34 1.46
  38  0.664  0.422  0.456-  37 1.39  41 1.42  53 1.43
  39  0.503  0.503  0.389-  40 1.40  24 1.43  36 1.43
  40  0.585  0.585  0.386-  39 1.40  55 1.44  43 1.44
  41  0.588  0.589  0.457-  42 1.39  26 1.42  38 1.42
  42  0.670  0.670  0.456-  41 1.39  57 1.43  45 1.43
  43  0.498  0.754  0.385-  44 1.41  28 1.42  40 1.44
  44  0.577  0.841  0.386-  43 1.41  59 1.47  31 1.49
  45  0.584  0.837  0.455-  46 1.42  30 1.42  42 1.43
  46  0.665  0.922  0.454-  45 1.42  33 1.44  61 1.45
  47  0.745  0.001  0.386-  48 1.42  32 1.44  60 1.45
  48  0.829  0.083  0.385-  47 1.42  51 1.42   1 1.43
  49  0.826  0.090  0.454-  50 1.41  62 1.48  34 1.49
  50  0.913  0.169  0.455-  49 1.41  53 1.42   3 1.44
  51  0.751  0.249  0.385-  36 1.42  48 1.42  52 1.42
  52  0.835  0.332  0.384-  55 1.42  51 1.42   5 1.43
  53  0.832  0.335  0.456-  50 1.42  54 1.42  38 1.43
  54  0.916  0.418  0.455-   7 1.42  57 1.42  53 1.42
  55  0.754  0.498  0.385-  56 1.41  52 1.42  40 1.44
  56  0.841  0.577  0.386-  55 1.41  59 1.48   9 1.49
  57  0.837  0.584  0.455-  58 1.42  54 1.42  42 1.43
  58  0.922  0.665  0.454-  57 1.42  11 1.44  61 1.45
  59  0.750  0.749  0.386-  60 1.40  44 1.47  56 1.48
  60  0.832  0.832  0.385-  59 1.40  13 1.45  47 1.45
  61  0.835  0.835  0.455-  62 1.40  46 1.45  58 1.45
  62  0.917  0.917  0.454-  61 1.40  15 1.47  49 1.48
 
  LATTYP: Found a simple monoclinic cell.
 ALAT       =    17.0497545948
 B/A-ratio  =     2.9325935292
 C/A-ratio  =     1.5274827517
 COS(beta)  =    -0.9819528776
  
  Lattice vectors:
  
 A1 = ( -14.7634400000,   8.5284800000,   0.0000000000)
 A2 = (   0.0000000000,   0.0000000000, -50.0000000000)
 A3 = (  19.6801600000, -17.0569600000,   0.0000000000)


Analysis of symmetry for initial positions (statically):
=====================================================================
 Subroutine PRICEL returns:
 Original cell was already a primitive cell.
 

 Routine SETGRP: Setting up the symmetry group for a 
 simple monoclinic supercell.


 Subroutine GETGRP returns: Found  1 space group operations
 (whereof  1 operations were pure point group operations)
 out of a pool of  4 trial point group operations.


The static configuration has the point symmetry C_1 .


Analysis of symmetry for dynamics (positions and initial velocities):
=====================================================================
 Subroutine PRICEL returns:
 Original cell was already a primitive cell.
 

 Routine SETGRP: Setting up the symmetry group for a 
 simple monoclinic supercell.


 Subroutine GETGRP returns: Found  1 space group operations
 (whereof  1 operations were pure point group operations)
 out of a pool of  4 trial point group operations.


The dynamic configuration has the point symmetry C_1 .


 Subroutine INISYM returns: Found  1 space group operations
 (whereof  1 operations are pure point group operations),
 and found     1 'primitive' translations

 
 

Automatic generation of k-mesh.
 generate k-points for:    5    5    1
Space group operators:
 irot       det(A)        alpha          n_x          n_y          n_z        tau_x        tau_y        tau_z
    1     1.000000     0.000000     1.000000     0.000000     0.000000     0.000000     0.000000     0.000000
 
 Subroutine IBZKPT returns following result:
 ===========================================
 
 Found     13 irreducible k-points:
 
 Following reciprocal coordinates:
            Coordinates               Weight
  0.000000  0.000000  0.000000      1.000000
  0.200000  0.000000  0.000000      2.000000
  0.400000  0.000000  0.000000      2.000000
  0.000000  0.200000  0.000000      2.000000
  0.200000  0.200000  0.000000      2.000000
  0.400000  0.200000  0.000000      2.000000
 -0.400000  0.200000  0.000000      2.000000
 -0.200000  0.200000  0.000000      2.000000
  0.000000  0.400000  0.000000      2.000000
  0.200000  0.400000  0.000000      2.000000
  0.400000  0.400000  0.000000      2.000000
 -0.400000  0.400000  0.000000      2.000000
 -0.200000  0.400000  0.000000      2.000000
 
 Following cartesian coordinates:
            Coordinates               Weight
  0.000000  0.000000  0.000000      1.000000
  0.020311 -0.011741  0.000000      2.000000
  0.040623 -0.023482  0.000000      2.000000
  0.000000  0.023451  0.000000      2.000000
  0.020311  0.011710  0.000000      2.000000
  0.040623 -0.000032  0.000000      2.000000
 -0.040623  0.046933  0.000000      2.000000
 -0.020311  0.035192  0.000000      2.000000
  0.000000  0.046902  0.000000      2.000000
  0.020311  0.035160  0.000000      2.000000
  0.040623  0.023419  0.000000      2.000000
 -0.040623  0.070384  0.000000      2.000000
 -0.020311  0.058643  0.000000      2.000000
 
 TETIRR: Found     72 inequivalent tetrahedra from      150


--------------------------------------------------------------------------------------------------------




 Dimension of arrays:
   k-points           NKPTS =     13   k-points in BZ     NKDIM =     13   number of bands    NBANDS=    156
   number of dos      NEDOS =    301   number of ions     NIONS =     62
   non local maximal  LDIM  =      4   non local SUM 2l+1 LMDIM =      8
   total plane-waves  NPLWV = ******
   max r-space proj   IRMAX =      1   max aug-charges    IRDMAX=  12631
   dimension x,y,z NGX =    96 NGY =   96 NGZ =  480
   dimension x,y,z NGXF=   192 NGYF=  192 NGZF=  960
   support grid    NGXF=   192 NGYF=  192 NGZF=  960
   ions per type =              62
   NGX,Y,Z   is equivalent  to a cutoff of  16.21, 16.20, 15.96 a.u.
   NGXF,Y,Z  is equivalent  to a cutoff of  32.42, 32.40, 31.92 a.u.

 SYSTEM =  unknown system                          
 POSCAR =  POSCAR file written by OVITO Basic 3.7.1

 Startparameter for this run:
   NWRITE =      2    write-flag & timer
   PREC   = accura    normal or accurate (medium, high low for compatibility)
   ISTART =      0    job   : 0-new  1-cont  2-samecut
   ICHARG =      2    charge: 1-file 2-atom 10-const
   ISPIN  =      1    spin polarized calculation?
   LNONCOLLINEAR =      F non collinear calculations
   LSORBIT =      F    spin-orbit coupling
   INIWAV =      1    electr: 0-lowe 1-rand  2-diag
   LASPH  =      F    aspherical Exc in radial PAW
   METAGGA=      F    non-selfconsistent MetaGGA calc.

 Electronic Relaxation 1
   ENCUT  =  850.0 eV  62.47 Ry    7.90 a.u.  23.41 23.42118.86*2*pi/ulx,y,z
   ENINI  =  850.0     initial cutoff
   ENAUG  =  644.9 eV  augmentation charge cutoff
   NELM   =    150;   NELMIN=  2; NELMDL= -5     # of ELM steps 
   EDIFF  = 0.1E-06   stopping-criterion for ELM
   LREAL  =      F    real-space projection
   NLSPLINE    = F    spline interpolate recip. space projectors
   LCOMPAT=      F    compatible to vasp.4.4
   GGA_COMPAT  = T    GGA compatible to vasp.4.4-vasp.4.6
   LMAXPAW     = -100 max onsite density
   LMAXMIX     =    2 max onsite mixed and CHGCAR
   VOSKOWN=      0    Vosko Wilk Nusair interpolation
   ROPT   =    0.00000
 Ionic relaxation
   EDIFFG = 0.1E-01   stopping-criterion for IOM
   NSW    =   1000    number of steps for IOM
   NBLOCK =      1;   KBLOCK =   1000    inner block; outer block 
   IBRION =      1    ionic relax: 0-MD 1-quasi-New 2-CG
   NFREE  =      0    steps in history (QN), initial steepest desc. (CG)
   ISIF   =      3    stress and relaxation
   IWAVPR =     11    prediction:  0-non 1-charg 2-wave 3-comb
   ISYM   =      2    0-nonsym 1-usesym 2-fastsym
   LCORR  =      T    Harris-Foulkes like correction to forces

   POTIM  = 0.5000    time-step for ionic-motion
   TEIN   =    0.0    initial temperature
   TEBEG  =    0.0;   TEEND  =   0.0 temperature during run
   SMASS  =  -3.00    Nose mass-parameter (am)
   estimated Nose-frequenzy (Omega)   =  0.10E-29 period in steps =****** mass=  -0.222E-26a.u.
   SCALEE = 1.0000    scale energy and forces
   NPACO  =    256;   APACO  = 16.0  distance and # of slots for P.C.
   PSTRESS=    0.0 pullay stress

  Mass of Ions in am
   POMASS =  12.01
  Ionic Valenz
   ZVAL   =   4.00
  Atomic Wigner-Seitz radii
   RWIGS  =  -1.00
  virtual crystal weights 
   VCA    =   1.00
   NELECT =     248.0000    total number of electrons
   NUPDOWN=      -1.0000    fix difference up-down

 DOS related values:
   EMIN   =  10.00;   EMAX   =-10.00  energy-range for DOS
   EFERMI =   0.00
   ISMEAR =    -5;   SIGMA  =   0.02  broadening in eV -4-tet -1-fermi 0-gaus

 Electronic relaxation 2 (details)
   IALGO  =     38    algorithm
   LDIAG  =      T    sub-space diagonalisation (order eigenvalues)
   LSUBROT=      F    optimize rotation matrix (better conditioning)
   TURBO    =      0    0=normal 1=particle mesh
   IRESTART =      0    0=no restart 2=restart with 2 vectors
   NREBOOT  =      0    no. of reboots
   NMIN     =      0    reboot dimension
   EREF     =   0.00    reference energy to select bands
   IMIX   =      4    mixing-type and parameters
     AMIX     =   0.40;   BMIX     =  1.00
     AMIX_MAG =   1.60;   BMIX_MAG =  1.00
     AMIN     =   0.10
     WC   =   100.;   INIMIX=   1;  MIXPRE=   1;  MAXMIX= -45

 Intra band minimization:
   WEIMIN = 0.0010     energy-eigenvalue tresh-hold
   EBREAK =  0.16E-09  absolut break condition
   DEPER  =   0.30     relativ break condition  

   TIME   =   0.40     timestep for ELM

  volume/ion in A,a.u.               =      67.72       457.02
  Fermi-wavevector in a.u.,A,eV,Ry     =   0.637550  1.204795  5.530362  0.406470
  Thomas-Fermi vector in A             =   1.702594
 
 Write flags
   LWAVE        =      F    write WAVECAR
   LDOWNSAMPLE  =      F    k-point downsampling of WAVECAR
   LCHARG       =      F    write CHGCAR
   LVTOT        =      F    write LOCPOT, total local potential
   LVHAR        =      F    write LOCPOT, Hartree potential only
   LELF         =      F    write electronic localiz. function (ELF)
   LORBIT       =      0    0 simple, 1 ext, 2 COOP (PROOUT), +10 PAW based schemes


 Dipole corrections
   LMONO  =      F    monopole corrections only (constant potential shift)
   LDIPOL =      F    correct potential (dipole corrections)
   IDIPOL =      0    1-x, 2-y, 3-z, 4-all directions 
   EPSILON=  1.0000000 bulk dielectric constant

 Exchange correlation treatment:
   GGA     =    --    GGA type
   LEXCH   =     8    internal setting for exchange type
   VOSKOWN=      0    Vosko Wilk Nusair interpolation
   LHFCALC =     F    Hartree Fock is set to
   LHFONE  =     F    Hartree Fock one center treatment
   AEXX    =    0.0000 exact exchange contribution

 Linear response parameters
   LEPSILON=     F    determine dielectric tensor
   LRPA    =     F    only Hartree local field effects (RPA)
   LNABLA  =     F    use nabla operator in PAW spheres
   LVEL    =     F    velocity operator in full k-point grid
   LINTERFAST=   F  fast interpolation
   KINTER  =     0    interpolate to denser k-point grid
   CSHIFT  =0.1000    complex shift for real part using Kramers Kronig
   OMEGAMAX=  -1.0    maximum frequency
   DEG_THRESHOLD= 0.2000000E-02 threshold for treating states as degnerate
   RTIME   =   -0.100 relaxation time in fs
  (WPLASMAI=    0.000 imaginary part of plasma frequency in eV, 0.658/RTIME)
   DFIELD  = 0.0000000 0.0000000 0.0000000 field for delta impulse in time
 
 Orbital magnetization related:
   ORBITALMAG=     F  switch on orbital magnetization
   LCHIMAG   =     F  perturbation theory with respect to B field
   DQ        =  0.001000  dq finite difference perturbation B field
   LLRAUG    =     F  two centre corrections for induced B field



--------------------------------------------------------------------------------------------------------


 quasi-Newton-method for relaxation of ions
 charge density and potential will be updated during run
 non-spin polarized calculation
 Variant of blocked Davidson
 Davidson routine will perform the subspace rotation
 perform sub-space diagonalisation
    after iterative eigenvector-optimisation
 modified Broyden-mixing scheme, WC =      100.0
 initial mixing is a Kerker type mixing with AMIX =  0.4000 and BMIX =      1.0000
 Hartree-type preconditioning will be used
 using additional bands           32
 reciprocal scheme for non local part
 use partial core corrections
 calculate Harris-corrections to forces 
   (improved forces if not selfconsistent)
 use gradient corrections 
 use of overlap-Matrix (Vanderbilt PP)
 Fermi weights with tetrahedron method with Bloechl corrections


--------------------------------------------------------------------------------------------------------


  energy-cutoff  :      850.00
  volume of cell :     4198.88
      direct lattice vectors                 reciprocal lattice vectors
     9.846720000  0.000000000  0.000000000     0.101556660 -0.058706163  0.000000000
     4.930000000  8.528480000  0.000000000     0.000000000  0.117254188  0.000000000
     0.000000000  0.000000000 50.000000000     0.000000000  0.000000000  0.020000000

  length of vectors
     9.846720000  9.850881743 50.000000000     0.117303746  0.117254188  0.020000000


 
 k-points in units of 2pi/SCALE and weight: read from INCAR                         
   0.00000000  0.00000000  0.00000000       0.040
   0.02031133 -0.01174123  0.00000000       0.080
   0.04062266 -0.02348247  0.00000000       0.080
   0.00000000  0.02345084  0.00000000       0.080
   0.02031133  0.01170961  0.00000000       0.080
   0.04062266 -0.00003163  0.00000000       0.080
  -0.04062266  0.04693330  0.00000000       0.080
  -0.02031133  0.03519207  0.00000000       0.080
   0.00000000  0.04690168  0.00000000       0.080
   0.02031133  0.03516044  0.00000000       0.080
   0.04062266  0.02341921  0.00000000       0.080
  -0.04062266  0.07038414  0.00000000       0.080
  -0.02031133  0.05864291  0.00000000       0.080
 
 k-points in reciprocal lattice and weights: read from INCAR                         
   0.00000000  0.00000000  0.00000000       0.040
   0.20000000  0.00000000  0.00000000       0.080
   0.40000000  0.00000000  0.00000000       0.080
   0.00000000  0.20000000  0.00000000       0.080
   0.20000000  0.20000000  0.00000000       0.080
   0.40000000  0.20000000  0.00000000       0.080
  -0.40000000  0.20000000  0.00000000       0.080
  -0.20000000  0.20000000  0.00000000       0.080
   0.00000000  0.40000000  0.00000000       0.080
   0.20000000  0.40000000  0.00000000       0.080
   0.40000000  0.40000000  0.00000000       0.080
  -0.40000000  0.40000000  0.00000000       0.080
  -0.20000000  0.40000000  0.00000000       0.080
 
 position of ions in fractional coordinates (direct lattice) 
   0.99671412  0.99659872  0.38387190
   0.07817809  0.07805861  0.38311355
   0.08185012  0.08194452  0.45366302
   0.16364060  0.16372089  0.45071975
   0.00228531  0.24416142  0.38354110
   0.09639621  0.31235389  0.38488528
   0.08090606  0.33195535  0.45044947
   0.16212993  0.41340803  0.44547035
   0.01530902  0.48308936  0.38661050
   0.09074370  0.57629406  0.38905413
   0.09023018  0.57592546  0.45094237
   0.18335883  0.65143966  0.45338085
   0.00145078  0.74450433  0.38587240
   0.08266948  0.82926569  0.38497445
   0.08986537  0.82597572  0.45434441
   0.16850277  0.91305454  0.45472239
   0.24431058  0.00210853  0.38354735
   0.31252023  0.09618184  0.38489037
   0.33189526  0.08091522  0.45043142
   0.41335126  0.16212183  0.44545722
   0.34953838  0.34949288  0.40737061
   0.31706956  0.31707291  0.43262920
   0.25325593  0.50444190  0.39454276
   0.33471143  0.58565316  0.38956832
   0.35407975  0.57038663  0.45511303
   0.42229505  0.66445418  0.45645513
   0.24915288  0.75040992  0.38543145
   0.33180346  0.83458720  0.38436669
   0.33480069  0.83197850  0.45563468
   0.41745142  0.91615259  0.45456743
   0.48324629  0.01512243  0.38661954
   0.57637428  0.09063882  0.38905635
   0.57585992  0.09027011  0.45094488
   0.65129648  0.18347291  0.45339056
   0.50447527  0.25315628  0.39452964
   0.58570280  0.33461067  0.38955108
   0.57021493  0.35420528  0.45511816
   0.66431928  0.42240259  0.45646130
   0.50296802  0.50284587  0.38928378
   0.58475449  0.58461604  0.38634090
   0.58842866  0.58850414  0.45688724
   0.66989288  0.66996552  0.45612558
   0.49810182  0.75350895  0.38528048
   0.57673788  0.84059301  0.38565430
   0.58393666  0.83728854  0.45502184
   0.66515662  0.92206191  0.45412363
   0.74460106  0.00134061  0.38587227
   0.82934844  0.08257652  0.38496636
   0.82584931  0.08998121  0.45435392
   0.91293958  0.16861337  0.45473336
   0.75051117  0.24903305  0.38541555
   0.83471412  0.33167702  0.38435407
   0.83189421  0.33488478  0.45564798
   0.91609641  0.41752749  0.45458455
   0.75366598  0.49795119  0.38526997
   0.84076058  0.57657929  0.38564540
   0.83724589  0.58399001  0.45503101
   0.92200787  0.66522410  0.45412400
   0.74964957  0.74949247  0.38582187
   0.83188017  0.83178363  0.38528629
   0.83472378  0.83477881  0.45470840
   0.91695875  0.91707273  0.45417417
 
 position of ions in cartesian coordinates  (Angst):
  14.72759651  8.49947223 19.19359479
   1.15462669  0.66572133 19.15567728
   1.20994172  0.69886219 22.68315104
   2.41846713  1.39629033 22.53598738
   1.22621862  2.08232579 19.17705511
   2.48909120  2.66390391 19.24426414
   2.43319923  2.83107460 22.52247348
   3.63454962  3.52574208 22.27351763
   2.53237415  4.12001795 19.33052500
   3.73465748  4.91491237 19.45270657
   3.72778378  4.91176875 22.54711850
   5.01708062  5.55579011 22.66904236
   3.68469172  6.34949028 19.29362025
   4.90230307  7.07237588 19.24872268
   4.95693943  7.04431743 22.71722064
   6.16055847  7.78696742 22.73611960
   2.41605295  0.01798257 19.17736751
   3.55147567  0.82028488 19.24451851
   3.66699173  0.69008380 22.52157092
   4.86941472  1.38265275 22.27286113
   5.16480643  2.98064305 20.36853060
   4.68526463  2.70415001 21.63146008
   4.98063877  4.30212269 19.72713776
   6.18307978  4.99473127 19.47841603
   6.29853031  4.86453101 22.75565146
   7.43398028  5.66678421 22.82275646
   6.15285957  6.39985600 19.27157261
   7.38169060  7.11776021 19.21833453
   7.39834267  7.09551199 22.78173388
   8.62715953  7.81338902 22.72837160
   4.83294450  0.12897130 19.33097686
   6.12224554  0.77301136 19.45281756
   6.11536305  0.76986681 22.54724402
   7.31765547  1.56474502 22.66952803
   6.21548714  2.15903825 19.72648176
   7.41688209  2.85372037 19.47755411
   7.36097873  3.02083263 22.75590815
   8.62381074  3.60245208 22.82306481
   7.43161547  4.28851099 19.46418906
   8.64007085  4.98588621 19.31704490
   8.69541767  5.01904580 22.84436192
   9.89917770  5.71378758 22.80627924
   8.61946830  6.42628600 19.26402384
   9.82310001  7.16898070 19.28271475
   9.87769332  7.14079861 22.75109197
  11.09537627  7.86378659 22.70618130
   7.33848739  0.01143333 19.29361358
   8.57346414  0.70425224 19.24831777
   8.57551426  0.76740293 22.71769602
   9.82072430  1.43801574 22.73666807
   8.61780634  2.12387341 19.27077744
   9.85436389  2.82870080 19.21770355
   9.84241136  2.85605817 22.78239892
  11.07895535  3.56087486 22.72922756
   9.87603719  4.24676673 19.26349838
  11.12126989  4.91734495 19.28227000
  11.12319659  4.98054712 22.75155035
  12.35830811  5.67335044 22.70619985
  11.07658734  6.39203157 19.29109349
  12.29198444  7.09385009 19.26431463
  12.33475086  7.11939437 22.73542015
  13.55020462  7.82123645 22.70870843
 


--------------------------------------------------------------------------------------------------------


 k-point  1 :   0.0000 0.0000 0.0000  plane waves:  236399
 k-point  2 :   0.2000 0.0000 0.0000  plane waves:  236384
 k-point  3 :   0.4000 0.0000 0.0000  plane waves:  236183
 k-point  4 :   0.0000 0.2000 0.0000  plane waves:  236383
 k-point  5 :   0.2000 0.2000 0.0000  plane waves:  236384
 k-point  6 :   0.4000 0.2000 0.0000  plane waves:  236217
 k-point  7 :  -0.4000 0.2000 0.0000  plane waves:  236260
 k-point  8 :  -0.2000 0.2000 0.0000  plane waves:  236225
 k-point  9 :   0.0000 0.4000 0.0000  plane waves:  236213
 k-point 10 :   0.2000 0.4000 0.0000  plane waves:  236205
 k-point 11 :   0.4000 0.4000 0.0000  plane waves:  236198
 k-point 12 :  -0.4000 0.4000 0.0000  plane waves:  236260
 k-point 13 :  -0.2000 0.4000 0.0000  plane waves:  236256

 maximum and minimum number of plane-waves per node :     29637    29480

 maximum number of plane-waves:    236399
 maximum index in each direction: 
   IXMAX=   23   IYMAX=   23   IZMAX=  118
   IXMIN=  -23   IYMIN=  -23   IZMIN= -118


 parallel 3D FFT for wavefunctions:
    minimum data exchange during FFTs selected (reduces bandwidth)
 parallel 3D FFT for charge:
    minimum data exchange during FFTs selected (reduces bandwidth)


 total amount of memory used by VASP MPI-rank0   343151. kBytes
=======================================================================

   base      :      30000. kBytes
   nonl-proj :      53997. kBytes
   fftplans  :      41100. kBytes
   grid      :      57575. kBytes
   one-center:         24. kBytes
   wavefun   :     160455. kBytes
 
     INWAV:  cpu time    0.0000: real time    0.0002
 Broyden mixing: mesh for mixing (old mesh)
   NGX = 47   NGY = 47   NGZ =237
  (NGX  =192   NGY  =192   NGZ  =960)
  gives a total of 523533 points

 initial charge density was supplied:
 charge density of overlapping atoms calculated
 number of electron     248.0000000 magnetization 
 keeping initial charge density in first step


--------------------------------------------------------------------------------------------------------


 Maximum index for augmentation-charges          580 (set IRDMAX)


--------------------------------------------------------------------------------------------------------


 First call to EWALD:  gamma=   0.110
 Maximum number of real-space cells 5x 5x 1
 Maximum number of reciprocal cells 2x 2x 7

    FEWALD:  cpu time    0.0020: real time    0.0020


--------------------------------------- Iteration      1(   1)  ---------------------------------------


    POTLOK:  cpu time    0.3837: real time    0.4120
    SETDIJ:  cpu time    0.0041: real time    0.0043
     EDDAV:  cpu time   80.4171: real time   80.6117
 BZINTS: Fermi energy:  7.786857;248.000000 electrons
         Band energy:-490.223551;  BLOECHL correction: -0.025230
       DOS:  cpu time    0.0124: real time    0.0124
    --------------------------------------------
      LOOP:  cpu time   80.8174: real time   81.0405

 eigenvalue-minimisations  :  4368
 total energy-change (2. order) : 0.2975081E+04  (-0.1015860E+05)
 number of electron     248.0000000 magnetization 
 augmentation part      248.0000000 magnetization 

 Free energy of the ion-electron system (eV)
  ---------------------------------------------------
  alpha Z        PSCENC =        75.20389891
  Ewald energy   TEWEN  =    208480.42628858
  -Hartree energ DENC   =   -214993.61293774
  -exchange      EXHF   =         0.00000000
  -V(xc)+E(xc)   XCENC  =       814.99374348
  PAW double counting   =      6728.36687556    -6763.67003570
  entropy T*S    EENTRO =         0.00000000
  eigenvalues    EBANDS =      -490.22355064
  atomic energy  EATOM  =      9123.59704331
  Solvation  Ediel_sol  =         0.00000000
  ---------------------------------------------------
  free energy    TOTEN  =      2975.08132577 eV

  energy without entropy =     2975.08132577  energy(sigma->0) =     2975.08132577


--------------------------------------------------------------------------------------------------------




--------------------------------------- Iteration      1(   2)  ---------------------------------------


     EDDAV:  cpu time  109.1884: real time  109.4573
 BZINTS: Fermi energy: -1.527447;248.000000 electrons
         Band energy:***********;  BLOECHL correction: -0.045366
       DOS:  cpu time    0.0122: real time    0.0122
    --------------------------------------------
      LOOP:  cpu time  109.2005: real time  109.4695

 eigenvalue-minimisations  :  6432
 total energy-change (2. order) :-0.2840162E+04  (-0.2676260E+04)
 number of electron     248.0000000 magnetization 
 augmentation part      248.0000000 magnetization 

 Free energy of the ion-electron system (eV)
  ---------------------------------------------------
  alpha Z        PSCENC =        75.20389891
  Ewald energy   TEWEN  =    208480.42628858
  -Hartree energ DENC   =   -214993.61293774
  -exchange      EXHF   =         0.00000000
  -V(xc)+E(xc)   XCENC  =       814.99374348
  PAW double counting   =      6728.36687556    -6763.67003570
  entropy T*S    EENTRO =         0.00000000
  eigenvalues    EBANDS =     -3330.38592567
  atomic energy  EATOM  =      9123.59704331
  Solvation  Ediel_sol  =         0.00000000
  ---------------------------------------------------
  free energy    TOTEN  =       134.91895074 eV

  energy without entropy =      134.91895074  energy(sigma->0) =      134.91895074


--------------------------------------------------------------------------------------------------------




--------------------------------------- Iteration      1(   3)  ---------------------------------------


     EDDAV:  cpu time   81.5100: real time   81.7131
 BZINTS: Fermi energy: -6.511274;248.000000 electrons
         Band energy:***********;  BLOECHL correction:  0.000000
       DOS:  cpu time    0.0030: real time    0.0030
    --------------------------------------------
      LOOP:  cpu time   81.5130: real time   81.7161

 eigenvalue-minimisations  :  4980
 total energy-change (2. order) :-0.6942874E+03  (-0.6911294E+03)
 number of electron     248.0000000 magnetization 
 augmentation part      248.0000000 magnetization 

 Free energy of the ion-electron system (eV)
  ---------------------------------------------------
  alpha Z        PSCENC =        75.20389891
  Ewald energy   TEWEN  =    208480.42628858
  -Hartree energ DENC   =   -214993.61293774
  -exchange      EXHF   =         0.00000000
  -V(xc)+E(xc)   XCENC  =       814.99374348
  PAW double counting   =      6728.36687556    -6763.67003570
  entropy T*S    EENTRO =         0.00000000
  eigenvalues    EBANDS =     -4024.67335069
  atomic energy  EATOM  =      9123.59704331
  Solvation  Ediel_sol  =         0.00000000
  ---------------------------------------------------
  free energy    TOTEN  =      -559.36847428 eV

  energy without entropy =     -559.36847428  energy(sigma->0) =     -559.36847428


--------------------------------------------------------------------------------------------------------




--------------------------------------- Iteration      1(   4)  ---------------------------------------


     EDDAV:  cpu time   80.9300: real time   81.1303
 BZINTS: Fermi energy: -6.829813;248.000000 electrons
         Band energy:***********;  BLOECHL correction:  0.000000
       DOS:  cpu time    0.0027: real time    0.0027
    --------------------------------------------
      LOOP:  cpu time   80.9327: real time   81.1330

 eigenvalue-minimisations  :  4956
 total energy-change (2. order) :-0.3483164E+02  (-0.3441064E+02)
 number of electron     248.0000000 magnetization 
 augmentation part      248.0000000 magnetization 

 Free energy of the ion-electron system (eV)
  ---------------------------------------------------
  alpha Z        PSCENC =        75.20389891
  Ewald energy   TEWEN  =    208480.42628858
  -Hartree energ DENC   =   -214993.61293774
  -exchange      EXHF   =         0.00000000
  -V(xc)+E(xc)   XCENC  =       814.99374348
  PAW double counting   =      6728.36687556    -6763.67003570
  entropy T*S    EENTRO =         0.00000000
  eigenvalues    EBANDS =     -4059.50499039
  atomic energy  EATOM  =      9123.59704331
  Solvation  Ediel_sol  =         0.00000000
  ---------------------------------------------------
  free energy    TOTEN  =      -594.20011398 eV

  energy without entropy =     -594.20011398  energy(sigma->0) =     -594.20011398


--------------------------------------------------------------------------------------------------------




--------------------------------------- Iteration      1(   5)  ---------------------------------------


     EDDAV:  cpu time   85.7121: real time   85.9516
 BZINTS: Fermi energy: -6.823512;248.000000 electrons
         Band energy:***********;  BLOECHL correction:  0.000000
       DOS:  cpu time    0.0027: real time    0.0027
    CHARGE:  cpu time    4.1346: real time    4.1444
    MIXING:  cpu time    0.0182: real time    0.0185
    --------------------------------------------
      LOOP:  cpu time   89.8676: real time   90.1172

 eigenvalue-minimisations  :  5340
 total energy-change (2. order) :-0.9501636E+00  (-0.9416645E+00)
 number of electron     248.0000000 magnetization 
 augmentation part        6.3681001 magnetization 

 Broyden mixing:
  rms(total) = 0.34213E+01    rms(broyden)= 0.34213E+01
  rms(prec ) = 0.34604E+01
  weight for this iteration     100.00

 Free energy of the ion-electron system (eV)
  ---------------------------------------------------
  alpha Z        PSCENC =        75.20389891
  Ewald energy   TEWEN  =    208480.42628858
  -Hartree energ DENC   =   -214993.61293774
  -exchange      EXHF   =         0.00000000
  -V(xc)+E(xc)   XCENC  =       814.99374348
  PAW double counting   =      6728.36687556    -6763.67003570
  entropy T*S    EENTRO =         0.00000000
  eigenvalues    EBANDS =     -4060.45515404
  atomic energy  EATOM  =      9123.59704331
  Solvation  Ediel_sol  =         0.00000000
  ---------------------------------------------------
  free energy    TOTEN  =      -595.15027763 eV

  energy without entropy =     -595.15027763  energy(sigma->0) =     -595.15027763


--------------------------------------------------------------------------------------------------------




--------------------------------------- Iteration      1(   6)  ---------------------------------------


    POTLOK:  cpu time    0.3587: real time    0.3650
    SETDIJ:  cpu time    0.0080: real time    0.0080
     EDDAV:  cpu time   77.3418: real time   77.5282
 BZINTS: Fermi energy: -5.765444;248.000000 electrons
         Band energy:***********;  BLOECHL correction:  0.000000
       DOS:  cpu time    0.0027: real time    0.0027
    CHARGE:  cpu time    4.1665: real time    4.1765
    MIXING:  cpu time    0.0155: real time    0.0155
    --------------------------------------------
      LOOP:  cpu time   81.8932: real time   82.0958

 eigenvalue-minimisations  :  4680
 total energy-change (2. order) : 0.2673684E+02  (-0.2786014E+01)
 number of electron     248.0000000 magnetization 
 augmentation part        6.1042655 magnetization 

 Broyden mixing:
  rms(total) = 0.19948E+01    rms(broyden)= 0.19948E+01
  rms(prec ) = 0.20128E+01
  weight for this iteration     100.00

 eigenvalues of (default mixing * dielectric matrix)
  average eigenvalue GAMMA=   2.1313
  2.1313

 Free energy of the ion-electron system (eV)
  ---------------------------------------------------
  alpha Z        PSCENC =        75.20389891
  Ewald energy   TEWEN  =    208480.42628858
  -Hartree energ DENC   =   -215326.36795181
  -exchange      EXHF   =         0.00000000
  -V(xc)+E(xc)   XCENC  =       829.59541443
  PAW double counting   =     12112.23405211   -12151.82884421
  entropy T*S    EENTRO =         0.00000000
  eigenvalues    EBANDS =     -3711.27333844
  atomic energy  EATOM  =      9123.59704331
  Solvation  Ediel_sol  =         0.00000000
  ---------------------------------------------------
  free energy    TOTEN  =      -568.41343711 eV

  energy without entropy =     -568.41343711  energy(sigma->0) =     -568.41343711


--------------------------------------------------------------------------------------------------------




--------------------------------------- Iteration      1(   7)  ---------------------------------------


    POTLOK:  cpu time    0.3415: real time    0.3478
    SETDIJ:  cpu time    0.0037: real time    0.0037
     EDDAV:  cpu time   74.9269: real time   75.1076
 BZINTS: Fermi energy: -4.412407;248.000000 electrons
         Band energy:***********;  BLOECHL correction:  0.000000
       DOS:  cpu time    0.0030: real time    0.0030
    CHARGE:  cpu time    3.9513: real time    3.9607
    MIXING:  cpu time    0.0139: real time    0.0140
    --------------------------------------------
      LOOP:  cpu time   79.2404: real time   79.4368

 eigenvalue-minimisations  :  4500
 total energy-change (2. order) : 0.8847490E+01  (-0.3243137E+01)
 number of electron     248.0000000 magnetization 
 augmentation part        5.7879957 magnetization 

 Broyden mixing:
  rms(total) = 0.54063E+00    rms(broyden)= 0.54063E+00
  rms(prec ) = 0.54344E+00
  weight for this iteration     100.00

 eigenvalues of (default mixing * dielectric matrix)
  average eigenvalue GAMMA=   1.8622
  1.4599  2.2645

 Free energy of the ion-electron system (eV)
  ---------------------------------------------------
  alpha Z        PSCENC =        75.20389891
  Ewald energy   TEWEN  =    208480.42628858
  -Hartree energ DENC   =   -215751.19951619
  -exchange      EXHF   =         0.00000000
  -V(xc)+E(xc)   XCENC  =       847.59060348
  PAW double counting   =     22008.35238147   -22051.61022154
  entropy T*S    EENTRO =         0.00000000
  eigenvalues    EBANDS =     -3291.92642511
  atomic energy  EATOM  =      9123.59704331
  Solvation  Ediel_sol  =         0.00000000
  ---------------------------------------------------
  free energy    TOTEN  =      -559.56594706 eV

  energy without entropy =     -559.56594706  energy(sigma->0) =     -559.56594706


--------------------------------------------------------------------------------------------------------




--------------------------------------- Iteration      1(   8)  ---------------------------------------


    POTLOK:  cpu time    0.3412: real time    0.3466
    SETDIJ:  cpu time    0.0039: real time    0.0039
     EDDAV:  cpu time   77.8104: real time   77.9959
 BZINTS: Fermi energy: -4.229391;248.000000 electrons
         Band energy:***********;  BLOECHL correction:  0.000000
       DOS:  cpu time    0.0027: real time    0.0027
    CHARGE:  cpu time    3.8034: real time    3.8124
    MIXING:  cpu time    0.0133: real time    0.0133
    --------------------------------------------
      LOOP:  cpu time   81.9748: real time   82.1748

 eigenvalue-minimisations  :  4800
 total energy-change (2. order) : 0.5697633E-01  (-0.1074750E+00)
 number of electron     248.0000000 magnetization 
 augmentation part        5.7650627 magnetization 

 Broyden mixing:
  rms(total) = 0.19067E+00    rms(broyden)= 0.19067E+00
  rms(prec ) = 0.19354E+00
  weight for this iteration     100.00

 eigenvalues of (default mixing * dielectric matrix)
  average eigenvalue GAMMA=   1.8108
  1.0649  1.9312  2.4364

 Free energy of the ion-electron system (eV)
  ---------------------------------------------------
  alpha Z        PSCENC =        75.20389891
  Ewald energy   TEWEN  =    208480.42628858
  -Hartree energ DENC   =   -215810.35017592
  -exchange      EXHF   =         0.00000000
  -V(xc)+E(xc)   XCENC  =       847.91814276
  PAW double counting   =     24164.85790195   -24207.22643730
  entropy T*S    EENTRO =         0.00000000
  eigenvalues    EBANDS =     -3233.93563304
  atomic energy  EATOM  =      9123.59704331
  Solvation  Ediel_sol  =         0.00000000
  ---------------------------------------------------
  free energy    TOTEN  =      -559.50897073 eV

  energy without entropy =     -559.50897073  energy(sigma->0) =     -559.50897073


--------------------------------------------------------------------------------------------------------




--------------------------------------- Iteration      1(   9)  ---------------------------------------


    POTLOK:  cpu time    0.3383: real time    0.3445
    SETDIJ:  cpu time    0.0040: real time    0.0040
     EDDAV:  cpu time   77.4337: real time   77.6185
 BZINTS: Fermi energy: -3.988165;248.000000 electrons
         Band energy:***********;  BLOECHL correction:  0.000000
       DOS:  cpu time    0.0030: real time    0.0030
    CHARGE:  cpu time    3.7216: real time    3.7305
    MIXING:  cpu time    0.0118: real time    0.0118
    --------------------------------------------
      LOOP:  cpu time   81.5124: real time   81.7123

 eigenvalue-minimisations  :  4704
 total energy-change (2. order) : 0.5182249E-01  (-0.1616818E-01)
 number of electron     248.0000000 magnetization 
 augmentation part        5.7659566 magnetization 

 Broyden mixing:
  rms(total) = 0.37866E-01    rms(broyden)= 0.37865E-01
  rms(prec ) = 0.43897E-01
  weight for this iteration     100.00

 eigenvalues of (default mixing * dielectric matrix)
  average eigenvalue GAMMA=   1.6101
  2.3423  2.0118  0.9877  1.0985

 Free energy of the ion-electron system (eV)
  ---------------------------------------------------
  alpha Z        PSCENC =        75.20389891
  Ewald energy   TEWEN  =    208480.42628858
  -Hartree energ DENC   =   -215856.80932838
  -exchange      EXHF   =         0.00000000
  -V(xc)+E(xc)   XCENC  =       847.99805701
  PAW double counting   =     25016.01739420   -25057.84506430
  entropy T*S    EENTRO =         0.00000000
  eigenvalues    EBANDS =     -3188.04543758
  atomic energy  EATOM  =      9123.59704331
  Solvation  Ediel_sol  =         0.00000000
  ---------------------------------------------------
  free energy    TOTEN  =      -559.45714824 eV

  energy without entropy =     -559.45714824  energy(sigma->0) =     -559.45714824


--------------------------------------------------------------------------------------------------------




--------------------------------------- Iteration      1(  10)  ---------------------------------------


    POTLOK:  cpu time    0.3428: real time    0.3495
    SETDIJ:  cpu time    0.0039: real time    0.0039
     EDDAV:  cpu time   80.0967: real time   80.2885
 BZINTS: Fermi energy: -3.952139;248.000000 electrons
         Band energy:***********;  BLOECHL correction:  0.000000
       DOS:  cpu time    0.0027: real time    0.0027
    CHARGE:  cpu time    3.6855: real time    3.6943
    MIXING:  cpu time    0.0151: real time    0.0151
    --------------------------------------------
      LOOP:  cpu time   84.1466: real time   84.3541

 eigenvalue-minimisations  :  4932
 total energy-change (2. order) : 0.1161245E-01  (-0.1426316E-02)
 number of electron     248.0000000 magnetization 
 augmentation part        5.7641884 magnetization 

 Broyden mixing:
  rms(total) = 0.25207E-01    rms(broyden)= 0.25207E-01
  rms(prec ) = 0.31289E-01
  weight for this iteration     100.00

 eigenvalues of (default mixing * dielectric matrix)
  average eigenvalue GAMMA=   1.6032
  2.2185  2.2185  0.9679  1.3055  1.3055

 Free energy of the ion-electron system (eV)
  ---------------------------------------------------
  alpha Z        PSCENC =        75.20389891
  Ewald energy   TEWEN  =    208480.42628858
  -Hartree energ DENC   =   -215877.93208674
  -exchange      EXHF   =         0.00000000
  -V(xc)+E(xc)   XCENC  =       848.09588673
  PAW double counting   =     24964.63819825   -25006.42985009
  entropy T*S    EENTRO =         0.00000000
  eigenvalues    EBANDS =     -3167.04491476
  atomic energy  EATOM  =      9123.59704331
  Solvation  Ediel_sol  =         0.00000000
  ---------------------------------------------------
  free energy    TOTEN  =      -559.44553580 eV

  energy without entropy =     -559.44553580  energy(sigma->0) =     -559.44553580


--------------------------------------------------------------------------------------------------------




--------------------------------------- Iteration      1(  11)  ---------------------------------------


    POTLOK:  cpu time    0.3459: real time    0.3526
    SETDIJ:  cpu time    0.0040: real time    0.0040
     EDDAV:  cpu time   75.4858: real time   75.6788
 BZINTS: Fermi energy: -3.819830;248.000000 electrons
         Band energy:***********;  BLOECHL correction:  0.000000
       DOS:  cpu time    0.0028: real time    0.0028
    CHARGE:  cpu time    3.6732: real time    3.6819
    MIXING:  cpu time    0.0138: real time    0.0138
    --------------------------------------------
      LOOP:  cpu time   79.5255: real time   79.7340

 eigenvalue-minimisations  :  4548
 total energy-change (2. order) : 0.1041813E-01  (-0.9182971E-03)
 number of electron     248.0000000 magnetization 
 augmentation part        5.7623854 magnetization 

 Broyden mixing:
  rms(total) = 0.15738E-01    rms(broyden)= 0.15738E-01
  rms(prec ) = 0.21074E-01
  weight for this iteration     100.00

 eigenvalues of (default mixing * dielectric matrix)
  average eigenvalue GAMMA=   1.6836
  2.5403  2.5403  1.7853  0.9986  1.1186  1.1186

 Free energy of the ion-electron system (eV)
  ---------------------------------------------------
  alpha Z        PSCENC =        75.20389891
  Ewald energy   TEWEN  =    208480.42628858
  -Hartree energ DENC   =   -215908.52896920
  -exchange      EXHF   =         0.00000000
  -V(xc)+E(xc)   XCENC  =       848.26578079
  PAW double counting   =     24928.40917778   -24970.16698309
  entropy T*S    EENTRO =         0.00000000
  eigenvalues    EBANDS =     -3136.64135475
  atomic energy  EATOM  =      9123.59704331
  Solvation  Ediel_sol  =         0.00000000
  ---------------------------------------------------
  free energy    TOTEN  =      -559.43511766 eV

  energy without entropy =     -559.43511766  energy(sigma->0) =     -559.43511766


--------------------------------------------------------------------------------------------------------




--------------------------------------- Iteration      1(  12)  ---------------------------------------


    POTLOK:  cpu time    0.3486: real time    0.3546
    SETDIJ:  cpu time    0.0039: real time    0.0039
     EDDAV:  cpu time   72.7033: real time   72.8769
 BZINTS: Fermi energy: -3.627635;248.000000 electrons
         Band energy:***********;  BLOECHL correction:  0.000000
       DOS:  cpu time    0.0030: real time    0.0030
    CHARGE:  cpu time    3.6915: real time    3.7003
    MIXING:  cpu time    0.0127: real time    0.0127
    --------------------------------------------
      LOOP:  cpu time   76.7630: real time   76.9514

 eigenvalue-minimisations  :  4368
 total energy-change (2. order) : 0.4367001E-02  (-0.9231659E-03)
 number of electron     248.0000000 magnetization 
 augmentation part        5.7601852 magnetization 

 Broyden mixing:
  rms(total) = 0.92694E-02    rms(broyden)= 0.92694E-02
  rms(prec ) = 0.12683E-01
  weight for this iteration     100.00

 eigenvalues of (default mixing * dielectric matrix)
  average eigenvalue GAMMA=   1.7997
  3.6068  2.3993  1.9011  0.9896  1.3253  1.1879  1.1879

 Free energy of the ion-electron system (eV)
  ---------------------------------------------------
  alpha Z        PSCENC =        75.20389891
  Ewald energy   TEWEN  =    208480.42628858
  -Hartree energ DENC   =   -215947.40876433
  -exchange      EXHF   =         0.00000000
  -V(xc)+E(xc)   XCENC  =       848.48929019
  PAW double counting   =     24913.88499979   -24955.61745909
  entropy T*S    EENTRO =         0.00000000
  eigenvalues    EBANDS =     -3098.00604803
  atomic energy  EATOM  =      9123.59704331
  Solvation  Ediel_sol  =         0.00000000
  ---------------------------------------------------
  free energy    TOTEN  =      -559.43075066 eV

  energy without entropy =     -559.43075066  energy(sigma->0) =     -559.43075066


--------------------------------------------------------------------------------------------------------




--------------------------------------- Iteration      1(  13)  ---------------------------------------


    POTLOK:  cpu time    0.3568: real time    0.3781
    SETDIJ:  cpu time    0.0041: real time    0.0041
     EDDAV:  cpu time   74.1322: real time   74.3107
 BZINTS: Fermi energy: -3.523049;248.000000 electrons
         Band energy:***********;  BLOECHL correction:  0.000000
       DOS:  cpu time    0.0030: real time    0.0030
    CHARGE:  cpu time    3.6894: real time    3.6982
    MIXING:  cpu time    0.0136: real time    0.0136
    --------------------------------------------
      LOOP:  cpu time   78.1991: real time   78.4078

 eigenvalue-minimisations  :  4476
 total energy-change (2. order) :-0.3396369E-02  (-0.5328201E-03)
 number of electron     248.0000000 magnetization 
 augmentation part        5.7584449 magnetization 

 Broyden mixing:
  rms(total) = 0.54117E-02    rms(broyden)= 0.54117E-02
  rms(prec ) = 0.70980E-02
  weight for this iteration     100.00

 eigenvalues of (default mixing * dielectric matrix)
  average eigenvalue GAMMA=   1.9001
  4.7019  2.3850  2.0127  1.7834  1.1552  1.1552  1.0039  1.0039

 Free energy of the ion-electron system (eV)
  ---------------------------------------------------
  alpha Z        PSCENC =        75.20389891
  Ewald energy   TEWEN  =    208480.42628858
  -Hartree energ DENC   =   -215979.10475462
  -exchange      EXHF   =         0.00000000
  -V(xc)+E(xc)   XCENC  =       848.63618506
  PAW double counting   =     24915.60785664   -24957.33137224
  entropy T*S    EENTRO =         0.00000000
  eigenvalues    EBANDS =     -3066.46929269
  atomic energy  EATOM  =      9123.59704331
  Solvation  Ediel_sol  =         0.00000000
  ---------------------------------------------------
  free energy    TOTEN  =      -559.43414703 eV

  energy without entropy =     -559.43414703  energy(sigma->0) =     -559.43414703


--------------------------------------------------------------------------------------------------------




--------------------------------------- Iteration      1(  14)  ---------------------------------------


    POTLOK:  cpu time    0.3415: real time    0.3480
    SETDIJ:  cpu time    0.0037: real time    0.0037
     EDDAV:  cpu time   73.8317: real time   74.0086
 BZINTS: Fermi energy: -3.426915;248.000000 electrons
         Band energy:***********;  BLOECHL correction:  0.000000
       DOS:  cpu time    0.0030: real time    0.0030
    CHARGE:  cpu time    3.7025: real time    3.7113
    MIXING:  cpu time    0.0145: real time    0.0145
    --------------------------------------------
      LOOP:  cpu time   77.8969: real time   78.0891

 eigenvalue-minimisations  :  4440
 total energy-change (2. order) :-0.4396899E-02  (-0.1229124E-03)
 number of electron     248.0000000 magnetization 
 augmentation part        5.7577193 magnetization 

 Broyden mixing:
  rms(total) = 0.32489E-02    rms(broyden)= 0.32489E-02
  rms(prec ) = 0.41365E-02
  weight for this iteration     100.00

 eigenvalues of (default mixing * dielectric matrix)
  average eigenvalue GAMMA=   1.9983
  5.6809  2.5244  2.2785  1.8927  1.2610  1.2610  1.1646  0.9608  0.9608

 Free energy of the ion-electron system (eV)
  ---------------------------------------------------
  alpha Z        PSCENC =        75.20389891
  Ewald energy   TEWEN  =    208480.42628858
  -Hartree energ DENC   =   -215996.33347010
  -exchange      EXHF   =         0.00000000
  -V(xc)+E(xc)   XCENC  =       848.67958542
  PAW double counting   =     24903.77598294   -24945.50106040
  entropy T*S    EENTRO =         0.00000000
  eigenvalues    EBANDS =     -3049.28681260
  atomic energy  EATOM  =      9123.59704331
  Solvation  Ediel_sol  =         0.00000000
  ---------------------------------------------------
  free energy    TOTEN  =      -559.43854393 eV

  energy without entropy =     -559.43854393  energy(sigma->0) =     -559.43854393


--------------------------------------------------------------------------------------------------------




--------------------------------------- Iteration      1(  15)  ---------------------------------------


    POTLOK:  cpu time    0.3514: real time    0.3578
    SETDIJ:  cpu time    0.0042: real time    0.0042
     EDDAV:  cpu time   78.8034: real time   78.9938
 BZINTS: Fermi energy: -3.442658;248.000000 electrons
         Band energy:***********;  BLOECHL correction:  0.000000
       DOS:  cpu time    0.0026: real time    0.0027
    CHARGE:  cpu time    3.7177: real time    3.7266
    MIXING:  cpu time    0.0140: real time    0.0141
    --------------------------------------------
      LOOP:  cpu time   82.8934: real time   83.0992

 eigenvalue-minimisations  :  4800
 total energy-change (2. order) :-0.3878916E-02  (-0.2994280E-04)
 number of electron     248.0000000 magnetization 
 augmentation part        5.7573720 magnetization 

 Broyden mixing:
  rms(total) = 0.18544E-02    rms(broyden)= 0.18544E-02
  rms(prec ) = 0.23606E-02
  weight for this iteration     100.00

 eigenvalues of (default mixing * dielectric matrix)
  average eigenvalue GAMMA=   2.0187
  6.3214  2.8494  2.3533  1.9595  1.3294  1.3294  1.0710  1.0710  1.0188  0.8840

 Free energy of the ion-electron system (eV)
  ---------------------------------------------------
  alpha Z        PSCENC =        75.20389891
  Ewald energy   TEWEN  =    208480.42628858
  -Hartree energ DENC   =   -216005.59991680
  -exchange      EXHF   =         0.00000000
  -V(xc)+E(xc)   XCENC  =       848.68680852
  PAW double counting   =     24899.03406831   -24940.76078482
  entropy T*S    EENTRO =         0.00000000
  eigenvalues    EBANDS =     -3040.02982886
  atomic energy  EATOM  =      9123.59704331
  Solvation  Ediel_sol  =         0.00000000
  ---------------------------------------------------
  free energy    TOTEN  =      -559.44242285 eV

  energy without entropy =     -559.44242285  energy(sigma->0) =     -559.44242285


--------------------------------------------------------------------------------------------------------




--------------------------------------- Iteration      1(  16)  ---------------------------------------


    POTLOK:  cpu time    0.3423: real time    0.3496
    SETDIJ:  cpu time    0.0038: real time    0.0038
     EDDAV:  cpu time   73.5112: real time   73.6885
 BZINTS: Fermi energy: -3.394019;248.000000 electrons
         Band energy:***********;  BLOECHL correction:  0.000000
       DOS:  cpu time    0.0028: real time    0.0028
    CHARGE:  cpu time    3.7115: real time    3.7203
    MIXING:  cpu time    0.0145: real time    0.0146
    --------------------------------------------
      LOOP:  cpu time   77.5861: real time   77.7796

 eigenvalue-minimisations  :  4404
 total energy-change (2. order) :-0.2045537E-02  (-0.8496395E-05)
 number of electron     248.0000000 magnetization 
 augmentation part        5.7573263 magnetization 

 Broyden mixing:
  rms(total) = 0.12088E-02    rms(broyden)= 0.12088E-02
  rms(prec ) = 0.15292E-02
  weight for this iteration     100.00

 eigenvalues of (default mixing * dielectric matrix)
  average eigenvalue GAMMA=   2.0722
  6.8384  3.3212  2.3311  2.1053  1.6871  1.2751  1.2751  1.1392  1.0080  1.0080
  0.8061

 Free energy of the ion-electron system (eV)
  ---------------------------------------------------
  alpha Z        PSCENC =        75.20389891
  Ewald energy   TEWEN  =    208480.42628858
  -Hartree energ DENC   =   -216009.52472345
  -exchange      EXHF   =         0.00000000
  -V(xc)+E(xc)   XCENC  =       848.68409458
  PAW double counting   =     24899.64804183   -24941.37438452
  entropy T*S    EENTRO =         0.00000000
  eigenvalues    EBANDS =     -3036.10472763
  atomic energy  EATOM  =      9123.59704331
  Solvation  Ediel_sol  =         0.00000000
  ---------------------------------------------------
  free energy    TOTEN  =      -559.44446838 eV

  energy without entropy =     -559.44446838  energy(sigma->0) =     -559.44446838


--------------------------------------------------------------------------------------------------------




--------------------------------------- Iteration      1(  17)  ---------------------------------------


    POTLOK:  cpu time    0.3428: real time    0.3484
    SETDIJ:  cpu time    0.0039: real time    0.0039
     EDDAV:  cpu time   72.4946: real time   72.6865
 BZINTS: Fermi energy: -3.383482;248.000000 electrons
         Band energy:***********;  BLOECHL correction:  0.000000
       DOS:  cpu time    0.0030: real time    0.0030
    CHARGE:  cpu time    3.6973: real time    3.7060
    MIXING:  cpu time    0.0158: real time    0.0158
    --------------------------------------------
      LOOP:  cpu time   76.5574: real time   76.7636

 eigenvalue-minimisations  :  4320
 total energy-change (2. order) :-0.2043102E-02  (-0.6208918E-05)
 number of electron     248.0000000 magnetization 
 augmentation part        5.7573047 magnetization 

 Broyden mixing:
  rms(total) = 0.69491E-03    rms(broyden)= 0.69491E-03
  rms(prec ) = 0.86910E-03
  weight for this iteration     100.00

 eigenvalues of (default mixing * dielectric matrix)
  average eigenvalue GAMMA=   2.1494
  7.2928  4.0465  2.4845  2.3420  1.9446  1.3326  1.3326  1.0954  1.0954  1.0092
  1.0092  0.8080

 Free energy of the ion-electron system (eV)
  ---------------------------------------------------
  alpha Z        PSCENC =        75.20389891
  Ewald energy   TEWEN  =    208480.42628858
  -Hartree energ DENC   =   -216012.33814816
  -exchange      EXHF   =         0.00000000
  -V(xc)+E(xc)   XCENC  =       848.68299094
  PAW double counting   =     24900.60459358   -24942.33012302
  entropy T*S    EENTRO =         0.00000000
  eigenvalues    EBANDS =     -3033.29305564
  atomic energy  EATOM  =      9123.59704331
  Solvation  Ediel_sol  =         0.00000000
  ---------------------------------------------------
  free energy    TOTEN  =      -559.44651149 eV

  energy without entropy =     -559.44651149  energy(sigma->0) =     -559.44651149


--------------------------------------------------------------------------------------------------------




--------------------------------------- Iteration      1(  18)  ---------------------------------------


    POTLOK:  cpu time    0.3405: real time    0.3468
    SETDIJ:  cpu time    0.0042: real time    0.0042
     EDDAV:  cpu time   74.4382: real time   74.6173
 BZINTS: Fermi energy: -3.379833;248.000000 electrons
         Band energy:***********;  BLOECHL correction:  0.000000
       DOS:  cpu time    0.0030: real time    0.0030
    CHARGE:  cpu time    3.6818: real time    3.6906
    MIXING:  cpu time    0.0153: real time    0.0153
    --------------------------------------------
      LOOP:  cpu time   78.4830: real time   78.6772

 eigenvalue-minimisations  :  4476
 total energy-change (2. order) :-0.1182359E-02  (-0.4841504E-05)
 number of electron     248.0000000 magnetization 
 augmentation part        5.7572597 magnetization 

 Broyden mixing:
  rms(total) = 0.39297E-03    rms(broyden)= 0.39297E-03
  rms(prec ) = 0.48274E-03
  weight for this iteration     100.00

 eigenvalues of (default mixing * dielectric matrix)
  average eigenvalue GAMMA=   2.1730
  7.6991  4.5145  2.4970  2.4970  1.8575  1.2790  1.2790  1.4505  1.3259  1.0404
  0.9973  0.9973  0.8140

 Free energy of the ion-electron system (eV)
  ---------------------------------------------------
  alpha Z        PSCENC =        75.20389891
  Ewald energy   TEWEN  =    208480.42628858
  -Hartree energ DENC   =   -216013.81508226
  -exchange      EXHF   =         0.00000000
  -V(xc)+E(xc)   XCENC  =       848.68464285
  PAW double counting   =     24901.35375514   -24943.07890311
  entropy T*S    EENTRO =         0.00000000
  eigenvalues    EBANDS =     -3031.81933729
  atomic energy  EATOM  =      9123.59704331
  Solvation  Ediel_sol  =         0.00000000
  ---------------------------------------------------
  free energy    TOTEN  =      -559.44769384 eV

  energy without entropy =     -559.44769384  energy(sigma->0) =     -559.44769384


--------------------------------------------------------------------------------------------------------




--------------------------------------- Iteration      1(  19)  ---------------------------------------


    POTLOK:  cpu time    0.3406: real time    0.3462
    SETDIJ:  cpu time    0.0039: real time    0.0039
     EDDAV:  cpu time   71.6558: real time   71.8402
 BZINTS: Fermi energy: -3.380984;248.000000 electrons
         Band energy:***********;  BLOECHL correction:  0.000000
       DOS:  cpu time    0.0030: real time    0.0030
    CHARGE:  cpu time    3.7373: real time    3.7462
    MIXING:  cpu time    0.0152: real time    0.0152
    --------------------------------------------
      LOOP:  cpu time   75.7558: real time   75.9547

 eigenvalue-minimisations  :  4272
 total energy-change (2. order) :-0.4330236E-03  (-0.1094760E-05)
 number of electron     248.0000000 magnetization 
 augmentation part        5.7572472 magnetization 

 Broyden mixing:
  rms(total) = 0.23774E-03    rms(broyden)= 0.23774E-03
  rms(prec ) = 0.29582E-03
  weight for this iteration     100.00

 eigenvalues of (default mixing * dielectric matrix)
  average eigenvalue GAMMA=   2.2390
  7.9762  5.2154  2.8791  2.3535  2.1085  1.9469  1.3490  1.3490  1.1534  1.1534
  1.0472  0.9996  0.9996  0.8151

 Free energy of the ion-electron system (eV)
  ---------------------------------------------------
  alpha Z        PSCENC =        75.20389891
  Ewald energy   TEWEN  =    208480.42628858
  -Hartree energ DENC   =   -216014.43902554
  -exchange      EXHF   =         0.00000000
  -V(xc)+E(xc)   XCENC  =       848.68478368
  PAW double counting   =     24900.78958697   -24942.51458117
  entropy T*S    EENTRO =         0.00000000
  eigenvalues    EBANDS =     -3031.19612162
  atomic energy  EATOM  =      9123.59704331
  Solvation  Ediel_sol  =         0.00000000
  ---------------------------------------------------
  free energy    TOTEN  =      -559.44812687 eV

  energy without entropy =     -559.44812687  energy(sigma->0) =     -559.44812687


--------------------------------------------------------------------------------------------------------




--------------------------------------- Iteration      1(  20)  ---------------------------------------


    POTLOK:  cpu time    0.3453: real time    0.3511
    SETDIJ:  cpu time    0.0041: real time    0.0041
     EDDAV:  cpu time   68.0955: real time   68.2714
 BZINTS: Fermi energy: -3.374430;248.000000 electrons
         Band energy:***********;  BLOECHL correction:  0.000000
       DOS:  cpu time    0.0027: real time    0.0027
    CHARGE:  cpu time    3.6978: real time    3.7066
    MIXING:  cpu time    0.0159: real time    0.0159
    --------------------------------------------
      LOOP:  cpu time   72.1612: real time   72.3518

 eigenvalue-minimisations  :  3996
 total energy-change (2. order) :-0.2924429E-03  (-0.9458902E-06)
 number of electron     248.0000000 magnetization 
 augmentation part        5.7572376 magnetization 

 Broyden mixing:
  rms(total) = 0.13392E-03    rms(broyden)= 0.13392E-03
  rms(prec ) = 0.16485E-03
  weight for this iteration     100.00

 eigenvalues of (default mixing * dielectric matrix)
  average eigenvalue GAMMA=   2.2715
  8.0602  5.8077  3.2217  2.5050  2.2504  1.8928  1.4849  1.4849  1.2515  1.2515
  1.0232  1.0232  1.0410  0.9524  0.8227

 Free energy of the ion-electron system (eV)
  ---------------------------------------------------
  alpha Z        PSCENC =        75.20389891
  Ewald energy   TEWEN  =    208480.42628858
  -Hartree energ DENC   =   -216014.82191790
  -exchange      EXHF   =         0.00000000
  -V(xc)+E(xc)   XCENC  =       848.68518063
  PAW double counting   =     24900.79628443   -24942.52127194
  entropy T*S    EENTRO =         0.00000000
  eigenvalues    EBANDS =     -3030.81392535
  atomic energy  EATOM  =      9123.59704331
  Solvation  Ediel_sol  =         0.00000000
  ---------------------------------------------------
  free energy    TOTEN  =      -559.44841931 eV

  energy without entropy =     -559.44841931  energy(sigma->0) =     -559.44841931


--------------------------------------------------------------------------------------------------------




--------------------------------------- Iteration      1(  21)  ---------------------------------------


    POTLOK:  cpu time    0.3471: real time    0.3535
    SETDIJ:  cpu time    0.0040: real time    0.0040
     EDDAV:  cpu time   70.2551: real time   70.4366
 BZINTS: Fermi energy: -3.377962;248.000000 electrons
         Band energy:***********;  BLOECHL correction:  0.000000
       DOS:  cpu time    0.0027: real time    0.0027
    CHARGE:  cpu time    3.6713: real time    3.6800
    MIXING:  cpu time    0.0171: real time    0.0172
    --------------------------------------------
      LOOP:  cpu time   74.2972: real time   74.4939

 eigenvalue-minimisations  :  3840
 total energy-change (2. order) :-0.1106249E-03  (-0.2215495E-06)
 number of electron     248.0000000 magnetization 
 augmentation part        5.7572331 magnetization 

 Broyden mixing:
  rms(total) = 0.76538E-04    rms(broyden)= 0.76538E-04
  rms(prec ) = 0.95225E-04
  weight for this iteration     100.00

 eigenvalues of (default mixing * dielectric matrix)
  average eigenvalue GAMMA=   2.3125
  8.2394  6.2226  3.7173  2.7326  2.3136  2.0428  1.6587  1.3893  1.3893  1.1811
  1.1811  1.1508  1.0071  1.0071  0.9427  0.8244

 Free energy of the ion-electron system (eV)
  ---------------------------------------------------
  alpha Z        PSCENC =        75.20389891
  Ewald energy   TEWEN  =    208480.42628858
  -Hartree energ DENC   =   -216015.01133192
  -exchange      EXHF   =         0.00000000
  -V(xc)+E(xc)   XCENC  =       848.68519289
  PAW double counting   =     24900.47720426   -24942.20226752
  entropy T*S    EENTRO =         0.00000000
  eigenvalues    EBANDS =     -3030.62455846
  atomic energy  EATOM  =      9123.59704331
  Solvation  Ediel_sol  =         0.00000000
  ---------------------------------------------------
  free energy    TOTEN  =      -559.44852994 eV

  energy without entropy =     -559.44852994  energy(sigma->0) =     -559.44852994


--------------------------------------------------------------------------------------------------------




--------------------------------------- Iteration      1(  22)  ---------------------------------------


    POTLOK:  cpu time    0.3661: real time    0.3774
    SETDIJ:  cpu time    0.0045: real time    0.0045
     EDDAV:  cpu time   67.3156: real time   67.4766
 BZINTS: Fermi energy: -3.380970;248.000000 electrons
         Band energy:***********;  BLOECHL correction:  0.000000
       DOS:  cpu time    0.0027: real time    0.0027
    CHARGE:  cpu time    3.6843: real time    3.6931
    MIXING:  cpu time    0.0171: real time    0.0172
    --------------------------------------------
      LOOP:  cpu time   71.3903: real time   71.5713

 eigenvalue-minimisations  :  3684
 total energy-change (2. order) :-0.6104275E-04  (-0.7321574E-07)
 number of electron     248.0000000 magnetization 
 augmentation part        5.7572340 magnetization 

 Broyden mixing:
  rms(total) = 0.42540E-04    rms(broyden)= 0.42540E-04
  rms(prec ) = 0.51803E-04
  weight for this iteration     100.00

 eigenvalues of (default mixing * dielectric matrix)
  average eigenvalue GAMMA=   2.3474
  8.2145  6.8216  4.1805  2.8389  2.4304  2.0510  1.9521  1.5077  1.5077  1.2583
  1.2583  1.0507  1.0507  1.0046  0.9773  0.9773  0.8243

 Free energy of the ion-electron system (eV)
  ---------------------------------------------------
  alpha Z        PSCENC =        75.20389891
  Ewald energy   TEWEN  =    208480.42628858
  -Hartree energ DENC   =   -216015.14181178
  -exchange      EXHF   =         0.00000000
  -V(xc)+E(xc)   XCENC  =       848.68490240
  PAW double counting   =     24900.48080867   -24942.20584551
  entropy T*S    EENTRO =         0.00000000
  eigenvalues    EBANDS =     -3030.49387557
  atomic energy  EATOM  =      9123.59704331
  Solvation  Ediel_sol  =         0.00000000
  ---------------------------------------------------
  free energy    TOTEN  =      -559.44859098 eV

  energy without entropy =     -559.44859098  energy(sigma->0) =     -559.44859098


--------------------------------------------------------------------------------------------------------




--------------------------------------- Iteration      1(  23)  ---------------------------------------


    POTLOK:  cpu time    0.3430: real time    0.3494
    SETDIJ:  cpu time    0.0039: real time    0.0039
     EDDAV:  cpu time   60.8518: real time   60.9961
 BZINTS: Fermi energy: -3.382464;248.000000 electrons
         Band energy:***********;  BLOECHL correction:  0.000000
       DOS:  cpu time    0.0027: real time    0.0027
    CHARGE:  cpu time    3.6892: real time    3.6979
    MIXING:  cpu time    0.0162: real time    0.0162
    --------------------------------------------
      LOOP:  cpu time   64.9067: real time   65.0663

 eigenvalue-minimisations  :  3180
 total energy-change (2. order) :-0.2242351E-04  (-0.9367369E-08)
 number of electron     248.0000000 magnetization 
 augmentation part        5.7572325 magnetization 

 Broyden mixing:
  rms(total) = 0.24914E-04    rms(broyden)= 0.24914E-04
  rms(prec ) = 0.30088E-04
  weight for this iteration     100.00

 eigenvalues of (default mixing * dielectric matrix)
  average eigenvalue GAMMA=   2.3668
  8.4754  7.0123  4.6831  2.9817  2.4554  2.2955  2.0014  1.4006  1.4006  1.4232
  1.4232  1.1499  1.1499  1.0027  1.0027  0.8257  0.9593  0.9593

 Free energy of the ion-electron system (eV)
  ---------------------------------------------------
  alpha Z        PSCENC =        75.20389891
  Ewald energy   TEWEN  =    208480.42628858
  -Hartree energ DENC   =   -216015.20714420
  -exchange      EXHF   =         0.00000000
  -V(xc)+E(xc)   XCENC  =       848.68495685
  PAW double counting   =     24900.54923011   -24942.27426511
  entropy T*S    EENTRO =         0.00000000
  eigenvalues    EBANDS =     -3030.42862186
  atomic energy  EATOM  =      9123.59704331
  Solvation  Ediel_sol  =         0.00000000
  ---------------------------------------------------
  free energy    TOTEN  =      -559.44861340 eV

  energy without entropy =     -559.44861340  energy(sigma->0) =     -559.44861340


--------------------------------------------------------------------------------------------------------




--------------------------------------- Iteration      1(  24)  ---------------------------------------


    POTLOK:  cpu time    0.3724: real time    0.3911
    SETDIJ:  cpu time    0.0041: real time    0.0041
     EDDAV:  cpu time   55.9487: real time   56.0809
 BZINTS: Fermi energy: -3.382774;248.000000 electrons
         Band energy:***********;  BLOECHL correction:  0.000000
       DOS:  cpu time    0.0027: real time    0.0027
    CHARGE:  cpu time    3.6959: real time    3.7047
    MIXING:  cpu time    0.0178: real time    0.0178
    --------------------------------------------
      LOOP:  cpu time   60.0414: real time   60.2013

 eigenvalue-minimisations  :  2868
 total energy-change (2. order) :-0.1118662E-04  (-0.2425687E-08)
 number of electron     248.0000000 magnetization 
 augmentation part        5.7572316 magnetization 

 Broyden mixing:
  rms(total) = 0.13530E-04    rms(broyden)= 0.13530E-04
  rms(prec ) = 0.16353E-04
  weight for this iteration     100.00

 eigenvalues of (default mixing * dielectric matrix)
  average eigenvalue GAMMA=   2.3944
  8.6622  7.2674  5.0579  3.2451  2.5591  2.5055  1.9016  1.9016  1.5011  1.5011
  1.2600  1.2600  1.0708  1.0708  1.0032  1.0032  0.8259  0.9815  0.9153

 Free energy of the ion-electron system (eV)
  ---------------------------------------------------
  alpha Z        PSCENC =        75.20389891
  Ewald energy   TEWEN  =    208480.42628858
  -Hartree energ DENC   =   -216015.25113901
  -exchange      EXHF   =         0.00000000
  -V(xc)+E(xc)   XCENC  =       848.68500963
  PAW double counting   =     24900.53399481   -24942.25902929
  entropy T*S    EENTRO =         0.00000000
  eigenvalues    EBANDS =     -3030.38469154
  atomic energy  EATOM  =      9123.59704331
  Solvation  Ediel_sol  =         0.00000000
  ---------------------------------------------------
  free energy    TOTEN  =      -559.44862459 eV

  energy without entropy =     -559.44862459  energy(sigma->0) =     -559.44862459


--------------------------------------------------------------------------------------------------------




--------------------------------------- Iteration      1(  25)  ---------------------------------------


    POTLOK:  cpu time    0.3596: real time    0.3667
    SETDIJ:  cpu time    0.0037: real time    0.0037
     EDDAV:  cpu time   52.5371: real time   52.6621
 BZINTS: Fermi energy: -3.382509;248.000000 electrons
         Band energy:***********;  BLOECHL correction:  0.000000
       DOS:  cpu time    0.0027: real time    0.0027
    CHARGE:  cpu time    3.6841: real time    3.6928
    MIXING:  cpu time    0.0181: real time    0.0181
    --------------------------------------------
      LOOP:  cpu time   56.6052: real time   56.7461

 eigenvalue-minimisations  :  2640
 total energy-change (2. order) :-0.5581194E-05  (-0.7999989E-09)
 number of electron     248.0000000 magnetization 
 augmentation part        5.7572310 magnetization 

 Broyden mixing:
  rms(total) = 0.84769E-05    rms(broyden)= 0.84769E-05
  rms(prec ) = 0.97822E-05
  weight for this iteration     100.00

 eigenvalues of (default mixing * dielectric matrix)
  average eigenvalue GAMMA=   2.3933
  8.8000  7.4542  5.3116  3.5189  2.7450  2.4174  1.9838  1.9838  1.4019  1.4019
  1.4430  1.4430  1.1408  1.1408  1.0160  1.0160  1.0144  0.8244  0.9044  0.9044

 Free energy of the ion-electron system (eV)
  ---------------------------------------------------
  alpha Z        PSCENC =        75.20389891
  Ewald energy   TEWEN  =    208480.42628858
  -Hartree energ DENC   =   -216015.27130437
  -exchange      EXHF   =         0.00000000
  -V(xc)+E(xc)   XCENC  =       848.68502239
  PAW double counting   =     24900.52959013   -24942.25461618
  entropy T*S    EENTRO =         0.00000000
  eigenvalues    EBANDS =     -3030.36455296
  atomic energy  EATOM  =      9123.59704331
  Solvation  Ediel_sol  =         0.00000000
  ---------------------------------------------------
  free energy    TOTEN  =      -559.44863017 eV

  energy without entropy =     -559.44863017  energy(sigma->0) =     -559.44863017


--------------------------------------------------------------------------------------------------------




--------------------------------------- Iteration      1(  26)  ---------------------------------------


    POTLOK:  cpu time    0.3467: real time    0.3475
    SETDIJ:  cpu time    0.0040: real time    0.0040
     EDDAV:  cpu time   51.8106: real time   51.9364
 BZINTS: Fermi energy: -3.382219;248.000000 electrons
         Band energy:***********;  BLOECHL correction:  0.000000
       DOS:  cpu time    0.0026: real time    0.0026
    CHARGE:  cpu time    3.6878: real time    3.7050
    MIXING:  cpu time    0.0181: real time    0.0182
    --------------------------------------------
      LOOP:  cpu time   55.8698: real time   56.0137

 eigenvalue-minimisations  :  2604
 total energy-change (2. order) :-0.2249286E-05  (-0.7922452E-10)
 number of electron     248.0000000 magnetization 
 augmentation part        5.7572307 magnetization 

 Broyden mixing:
  rms(total) = 0.49346E-05    rms(broyden)= 0.49346E-05
  rms(prec ) = 0.56729E-05
  weight for this iteration     100.00

 eigenvalues of (default mixing * dielectric matrix)
  average eigenvalue GAMMA=   2.4127
  9.0263  7.5382  5.6444  3.8288  2.7777  2.3958  2.3958  1.8728  1.7935  1.4828
  1.4828  1.2180  1.2180  1.2332  1.1014  1.0293  1.0293  0.9585  0.9585  0.8245
  0.8579

 Free energy of the ion-electron system (eV)
  ---------------------------------------------------
  alpha Z        PSCENC =        75.20389891
  Ewald energy   TEWEN  =    208480.42628858
  -Hartree energ DENC   =   -216015.27878193
  -exchange      EXHF   =         0.00000000
  -V(xc)+E(xc)   XCENC  =       848.68503161
  PAW double counting   =     24900.53230798   -24942.25733144
  entropy T*S    EENTRO =         0.00000000
  eigenvalues    EBANDS =     -3030.35708946
  atomic energy  EATOM  =      9123.59704331
  Solvation  Ediel_sol  =         0.00000000
[...]
   C          33.829          3.404         10.224          0.852
   C          34.197          3.410         10.280          0.857
   C          33.731          3.402         10.209          0.851
   C          33.983          3.406         10.247          0.854
   C          34.490          3.415         10.324          0.860
   C          33.930          3.406         10.240          0.853
   C          34.177          3.410         10.277          0.856
   C          34.177          3.410         10.277          0.856
   C          33.930          3.406         10.239          0.853
   C          34.490          3.415         10.324          0.860
   C          33.982          3.406         10.247          0.854
   C          33.851          3.404         10.228          0.852
   C          33.874          3.405         10.231          0.853
   C          33.874          3.405         10.231          0.853
   C          33.851          3.404         10.228          0.852
   C          33.982          3.406         10.247          0.854
   C          34.490          3.415         10.324          0.860
   C          33.930          3.406         10.240          0.853
   C          34.177          3.410         10.277          0.856
   C          34.421          3.414         10.313          0.859
   C          34.244          3.411         10.287          0.857
   C          34.244          3.411         10.287          0.857
   C          34.421          3.414         10.313          0.859
  Edisp (eV):   -7.04323
    FORVDW:  cpu time  103.5825: real time  103.8272

  FORCE on cell =-STRESS in cart. coord.  units (eV):
  Direction    XX          YY          ZZ          XY          YZ          ZX
  --------------------------------------------------------------------------------------
  Alpha Z    76.95909    76.95909    76.95909
  Ewald  221070.86711221077.25010************    -5.58014  -567.43797  -908.48905
  Hartree220086.32178220109.54280************   -20.11444  -451.51594  -709.25276
  E(xc)    -921.23715  -921.13234  -951.80718    -0.09065    -0.53058    -0.91485
  Local  ************************445505.51173    29.80417  1008.65472  1599.96619
  n-local  -214.81272  -213.99636  -199.67822    -0.70653     0.32037     0.55280
  augment   -23.87192   -23.84182   -22.04748    -0.02594     0.04520     0.07759
  Kinetic  3731.78355  3735.67868  4237.46645    -3.36268    10.31359    17.80784
  Fock        0.00000     0.00000     0.00000     0.00000     0.00000     0.00000
  vdW        -7.43781    -7.56326    -4.30416     0.10840     0.03216     0.05523
  -------------------------------------------------------------------------------------
  Total      -0.10630    -0.14815     0.29841     0.03221    -0.11846    -0.19701
  in kB      -0.04151    -0.05785     0.11652     0.01258    -0.04626    -0.07693
  external pressure =        0.01 kB  Pullay stress =        0.00 kB


 VOLUME and BASIS-vectors are now :
 -----------------------------------------------------------------------------
  energy-cutoff  :      850.00
  volume of cell :     4103.11
      direct lattice vectors                 reciprocal lattice vectors
     9.831746971  0.154921399 -0.012301623     0.102681583 -0.061569245  0.000077168
     5.056664567  8.433192708 -0.013099929    -0.001886186  0.119710184  0.000094558
    -0.061791620 -0.040435843 49.959113637     0.000024789  0.000016229  0.020016412

  length of vectors
     9.832975159  9.833044666 49.959168214     0.119725876  0.119725080  0.020016434


 FORCES acting on ions
    electron-ion (+dipol)            ewald-force                    non-local-force                 convergence-correction
 -----------------------------------------------------------------------------------------------
   0.829E+01 0.483E+01 0.514E+03   -.842E+01 -.490E+01 -.514E+03   0.125E+00 0.719E-01 0.213E-01   0.253E-03 0.136E-03 -.838E-03
   0.619E+01 0.361E+01 0.526E+03   -.630E+01 -.368E+01 -.526E+03   0.108E+00 0.624E-01 0.167E-01   0.542E-05 0.195E-04 -.666E-03
   0.815E+01 0.464E+01 -.466E+03   -.817E+01 -.466E+01 0.466E+03   0.101E-01 0.590E-02 -.163E+00   -.602E-05 0.531E-05 -.916E-05
   0.455E+01 0.257E+01 -.421E+03   -.485E+01 -.275E+01 0.420E+03   0.282E+00 0.162E+00 0.810E+00   0.202E-03 0.118E-03 -.870E-04
   -.127E+02 -.251E+02 0.521E+03   0.132E+02 0.257E+02 -.521E+03   -.581E+00 -.595E+00 0.140E+00   0.486E-04 -.743E-04 -.506E-03
   -.863E+02 0.219E+00 0.514E+03   0.866E+02 -.181E+00 -.514E+03   -.355E+00 -.617E-01 -.246E-04   0.136E-03 -.180E-03 -.445E-03
   -.547E+01 0.128E+01 -.440E+03   0.534E+01 -.122E+01 0.440E+03   0.124E+00 -.654E-01 -.990E-01   0.604E-04 -.160E-03 0.111E-03
   -.190E+02 -.609E+01 -.388E+03   0.191E+02 0.674E+01 0.388E+03   -.648E-01 -.654E+00 -.896E-01   0.621E-04 0.526E-04 0.270E-03
   -.906E+01 0.189E+02 0.493E+03   0.931E+01 -.193E+02 -.492E+03   -.269E+00 0.389E+00 -.128E+00   -.169E-04 -.194E-03 -.477E-03
   0.204E+02 0.167E+02 0.472E+03   -.208E+02 -.169E+02 -.472E+03   0.485E+00 0.209E+00 0.918E-01   0.268E-03 -.105E-04 -.524E-03
   -.247E+02 -.933E+01 -.471E+03   0.250E+02 0.963E+01 0.472E+03   -.423E+00 -.315E+00 -.918E-01   -.124E-03 -.243E-03 0.523E-03
   -.118E+02 0.172E+02 -.493E+03   0.120E+02 -.176E+02 0.492E+03   -.202E+00 0.427E+00 0.128E+00   0.179E-03 -.807E-04 0.478E-03
   0.120E+02 0.905E+01 0.503E+03   -.121E+02 -.918E+01 -.503E+03   0.167E+00 0.116E+00 0.179E+00   0.941E-04 -.177E-03 -.760E-03
   0.108E+02 0.909E+01 0.502E+03   -.110E+02 -.935E+01 -.502E+03   0.184E+00 0.239E+00 -.335E+00   0.246E-03 -.177E-03 -.753E-03
   0.143E+02 0.133E+02 -.485E+03   -.142E+02 -.136E+02 0.485E+03   -.350E-01 0.346E+00 -.822E-01   0.189E-03 0.138E-04 0.386E-03
   0.143E+02 -.471E+00 -.483E+03   -.146E+02 0.269E+00 0.483E+03   0.228E+00 0.174E+00 0.117E+00   0.133E-04 -.248E-03 0.180E-03
   -.281E+02 0.168E+01 0.521E+03   0.289E+02 -.148E+01 -.521E+03   -.806E+00 -.205E+00 0.139E+00   -.159E-04 0.706E-04 -.507E-03
   -.431E+02 -.747E+02 0.514E+03   0.433E+02 0.750E+02 -.514E+03   -.231E+00 -.276E+00 -.444E-04   -.914E-04 0.200E-03 -.446E-03
   -.159E+01 -.545E+01 -.440E+03   0.157E+01 0.531E+01 0.440E+03   0.609E-02 0.140E+00 -.987E-01   -.111E-03 0.133E-03 0.113E-03
   -.148E+02 -.135E+02 -.388E+03   0.153E+02 0.132E+02 0.388E+03   -.599E+00 0.271E+00 -.908E-01   0.713E-04 0.284E-04 0.270E-03
   0.181E+02 0.105E+02 0.201E+03   -.192E+02 -.111E+02 -.201E+03   0.112E+01 0.645E+00 -.106E+00   0.112E-03 0.627E-04 -.273E-03
   -.181E+02 -.105E+02 -.201E+03   0.192E+02 0.111E+02 0.201E+03   -.112E+01 -.645E+00 0.106E+00   -.112E-03 -.633E-04 0.273E-03
   0.148E+02 0.135E+02 0.388E+03   -.153E+02 -.132E+02 -.388E+03   0.599E+00 -.271E+00 0.908E-01   -.760E-04 -.300E-04 -.268E-03
   0.159E+01 0.545E+01 0.440E+03   -.157E+01 -.530E+01 -.440E+03   -.609E-02 -.140E+00 0.987E-01   0.113E-03 -.126E-03 -.114E-03
   0.431E+02 0.747E+02 -.514E+03   -.433E+02 -.750E+02 0.514E+03   0.231E+00 0.276E+00 -.152E-03   0.942E-04 -.199E-03 0.446E-03
   0.281E+02 -.168E+01 -.521E+03   -.289E+02 0.148E+01 0.521E+03   0.806E+00 0.205E+00 -.139E+00   0.145E-04 -.765E-04 0.506E-03
   -.551E+01 -.521E+00 0.502E+03   0.555E+01 0.833E+00 -.502E+03   -.611E-01 -.296E+00 0.462E+00   -.246E-03 0.967E-04 -.425E-03
   -.313E+01 0.478E+01 0.503E+03   0.331E+01 -.487E+01 -.503E+03   -.158E+00 0.795E-01 -.206E-01   0.151E-03 0.173E-03 -.346E-03
   0.313E+01 -.479E+01 -.503E+03   -.331E+01 0.487E+01 0.503E+03   0.158E+00 -.795E-01 0.205E-01   -.152E-03 -.169E-03 0.346E-03
   0.551E+01 0.522E+00 -.502E+03   -.555E+01 -.834E+00 0.502E+03   0.612E-01 0.296E+00 -.462E+00   0.246E-03 -.100E-03 0.426E-03
   0.118E+02 -.172E+02 0.493E+03   -.120E+02 0.176E+02 -.492E+03   0.202E+00 -.427E+00 -.128E+00   -.179E-03 0.813E-04 -.477E-03
   0.247E+02 0.933E+01 0.471E+03   -.250E+02 -.962E+01 -.472E+03   0.423E+00 0.315E+00 0.918E-01   0.123E-03 0.245E-03 -.522E-03
   -.204E+02 -.167E+02 -.472E+03   0.208E+02 0.169E+02 0.472E+03   -.485E+00 -.209E+00 -.918E-01   -.268E-03 0.879E-05 0.526E-03
   0.906E+01 -.189E+02 -.493E+03   -.931E+01 0.193E+02 0.492E+03   0.269E+00 -.389E+00 0.128E+00   0.172E-04 0.194E-03 0.477E-03
   0.190E+02 0.609E+01 0.388E+03   -.191E+02 -.674E+01 -.388E+03   0.647E-01 0.654E+00 0.896E-01   -.656E-04 -.561E-04 -.268E-03
   0.547E+01 -.128E+01 0.440E+03   -.534E+01 0.122E+01 -.440E+03   -.124E+00 0.653E-01 0.989E-01   -.532E-04 0.158E-03 -.112E-03
   0.863E+02 -.218E+00 -.514E+03   -.866E+02 0.180E+00 0.514E+03   0.355E+00 0.617E-01 -.175E-03   -.135E-03 0.182E-03 0.445E-03
   0.127E+02 0.251E+02 -.521E+03   -.132E+02 -.257E+02 0.521E+03   0.581E+00 0.595E+00 -.140E+00   -.522E-04 0.750E-04 0.505E-03
   -.455E+01 -.257E+01 0.421E+03   0.486E+01 0.275E+01 -.420E+03   -.282E+00 -.162E+00 -.810E+00   -.197E-03 -.114E-03 0.862E-04
   -.814E+01 -.464E+01 0.466E+03   0.817E+01 0.466E+01 -.466E+03   -.102E-01 -.596E-02 0.163E+00   0.322E-05 -.621E-05 0.954E-05
   -.619E+01 -.361E+01 -.526E+03   0.630E+01 0.368E+01 0.526E+03   -.108E+00 -.624E-01 -.169E-01   -.110E-04 -.220E-04 0.665E-03
   -.829E+01 -.483E+01 -.514E+03   0.842E+01 0.491E+01 0.514E+03   -.125E+00 -.718E-01 -.212E-01   -.245E-03 -.131E-03 0.838E-03
   -.143E+02 0.472E+00 0.483E+03   0.146E+02 -.270E+00 -.483E+03   -.228E+00 -.174E+00 -.117E+00   -.881E-05 0.249E-03 -.180E-03
   -.143E+02 -.133E+02 0.485E+03   0.142E+02 0.136E+02 -.485E+03   0.349E-01 -.346E+00 0.822E-01   -.192E-03 -.155E-04 -.386E-03
   -.109E+02 -.909E+01 -.502E+03   0.110E+02 0.935E+01 0.502E+03   -.184E+00 -.240E+00 0.335E+00   -.246E-03 0.171E-03 0.754E-03
   -.120E+02 -.905E+01 -.503E+03   0.122E+02 0.917E+01 0.503E+03   -.167E+00 -.115E+00 -.179E+00   -.904E-04 0.177E-03 0.762E-03
   0.138E+02 0.593E+01 0.503E+03   -.140E+02 -.599E+01 -.503E+03   0.184E+00 0.864E-01 0.179E+00   -.108E-03 0.168E-03 -.759E-03
   0.133E+02 0.490E+01 0.502E+03   -.136E+02 -.493E+01 -.502E+03   0.299E+00 0.400E-01 -.334E+00   -.384E-04 0.319E-03 -.750E-03
   0.187E+02 0.564E+01 -.485E+03   -.190E+02 -.542E+01 0.485E+03   0.282E+00 -.204E+00 -.818E-01   0.101E-03 0.152E-03 0.385E-03
   0.681E+01 0.126E+02 -.483E+03   -.710E+01 -.127E+02 0.483E+03   0.265E+00 0.110E+00 0.116E+00   -.194E-03 0.142E-03 0.177E-03
   -.324E+01 -.444E+01 0.502E+03   0.353E+01 0.432E+01 -.503E+03   -.287E+00 0.953E-01 0.462E+00   -.476E-04 -.275E-03 -.421E-03
   0.254E+01 -.503E+01 0.504E+03   -.253E+01 0.523E+01 -.504E+03   -.100E-01 -.176E+00 -.198E-01   0.224E-03 0.546E-04 -.343E-03
   -.254E+01 0.504E+01 -.504E+03   0.253E+01 -.523E+01 0.504E+03   0.100E-01 0.176E+00 0.197E-01   -.222E-03 -.560E-04 0.342E-03
   0.324E+01 0.444E+01 -.502E+03   -.353E+01 -.432E+01 0.503E+03   0.287E+00 -.953E-01 -.462E+00   0.442E-04 0.276E-03 0.422E-03
   -.680E+01 -.126E+02 0.483E+03   0.710E+01 0.127E+02 -.483E+03   -.265E+00 -.110E+00 -.116E+00   0.198E-03 -.140E-03 -.177E-03
   -.187E+02 -.564E+01 0.485E+03   0.190E+02 0.542E+01 -.485E+03   -.282E+00 0.204E+00 0.818E-01   -.104E-03 -.154E-03 -.384E-03
   -.133E+02 -.491E+01 -.502E+03   0.136E+02 0.493E+01 0.502E+03   -.300E+00 -.400E-01 0.335E+00   0.334E-04 -.316E-03 0.751E-03
   -.138E+02 -.593E+01 -.503E+03   0.140E+02 0.599E+01 0.503E+03   -.184E+00 -.864E-01 -.179E+00   0.110E-03 -.165E-03 0.760E-03
   0.142E+02 0.825E+01 0.478E+03   -.142E+02 -.822E+01 -.477E+03   -.456E-01 -.262E-01 -.454E+00   0.541E-04 0.308E-04 -.532E-03
   0.491E+01 0.287E+01 0.504E+03   -.504E+01 -.295E+01 -.505E+03   0.127E+00 0.731E-01 0.200E+00   -.895E-04 -.506E-04 -.773E-03
   -.491E+01 -.287E+01 -.504E+03   0.504E+01 0.295E+01 0.504E+03   -.127E+00 -.731E-01 -.200E+00   0.871E-04 0.494E-04 0.774E-03
   -.142E+02 -.825E+01 -.478E+03   0.142E+02 0.822E+01 0.477E+03   0.456E-01 0.262E-01 0.454E+00   -.536E-04 -.306E-04 0.533E-03
 -----------------------------------------------------------------------------------------------
   -.111E-03 -.212E-04 0.196E-03   0.583E-12 -.320E-13 -.114E-11   0.189E-04 -.406E-04 -.409E-03   0.512E-07 0.185E-06 0.150E-04
 
 
 POSITION                                       TOTAL-FORCE (eV/Angst)
 -----------------------------------------------------------------------------------
     14.79634      8.53252     19.12525        -0.004996     -0.003738     -0.061155
      1.11051      0.63806     19.12293        -0.007087     -0.003025     -0.039013
      1.17427      0.67559     22.62769        -0.011034     -0.005941     -0.058998
      2.38363      1.37318     22.46983        -0.019053     -0.011392     -0.065283
      1.23731      2.02716     19.15396        -0.009060     -0.009093     -0.017785
      2.56669      2.50608     19.22711         0.006605     -0.016170     -0.009237
      2.42943      2.78497     22.47416         0.001015     -0.015183     -0.042401
      3.63502      3.47468     22.23218        -0.011429      0.004219     -0.014250
      2.60598      3.99000     19.30456         0.004224     -0.014359     -0.010315
      3.79054      4.82611     19.40958         0.021659     -0.004523     -0.018752
      3.79501      4.82937     22.53865        -0.006723     -0.021434      0.018751
      5.11182      5.43620     22.64365         0.010442     -0.011011      0.010456
      3.75196      6.24609     19.23466         0.012202     -0.010710     -0.049230
      4.96914      6.97505     19.19456        -0.000094     -0.020120     -0.051000
      5.04476      6.92503     22.68104         0.008013     -0.003199     -0.006854
      6.23600      7.69043     22.68256        -0.008404     -0.019610     -0.035128
      2.37641      0.05235     19.15445        -0.011283     -0.003928     -0.018024
      3.45658      0.96333     19.22742        -0.010987      0.013775     -0.009397
      3.62861      0.70591     22.47420        -0.012522      0.008722     -0.042175
      4.82931      1.40414     22.23243        -0.002052     -0.012077     -0.014261
      5.20651      3.00098     20.36370         0.021345      0.012292     -0.000050
      4.66608      2.68959     21.58503        -0.021295     -0.012262     -0.000027
      5.04327      4.28643     19.71629         0.001892      0.011909      0.014328
      6.24397      4.98466     19.47455         0.012561     -0.008467      0.042098
      6.41600      4.72723     22.72134         0.011153     -0.013681      0.009336
      7.49618      5.63821     22.79432         0.011091      0.003713      0.017934
      6.22836      6.35880     19.23883        -0.011849      0.021144     -0.004561
      7.45733      7.08527     19.19225         0.013577     -0.008697      0.008418
      7.47192      7.03848     22.74341        -0.013655      0.008824     -0.008479
      8.70089      7.76496     22.69678         0.011887     -0.021187      0.004570
      4.76076      0.25437     19.30507        -0.010418      0.011024     -0.010463
      6.07757      0.86120     19.41003         0.006731      0.021446     -0.018699
      6.08204      0.86445     22.53909        -0.021668      0.004546      0.018800
      7.26660      1.70056     22.64416        -0.004187      0.014354      0.010304
      6.23757      2.21588     19.71655         0.011213     -0.004291      0.014306
      7.44316      2.90560     19.47460        -0.000798      0.015094      0.042315
      7.30589      3.18448     22.72166        -0.006485      0.016266      0.009166
      8.63528      3.66341     22.79482         0.008874      0.008971      0.017679
      7.48896      4.31739     19.47896         0.019281      0.011520      0.065223
      8.69832      5.01498     19.32112         0.010760      0.005831      0.058981
      8.76208      5.05251     22.82582         0.006927      0.002983      0.038959
      9.96465      5.74616     22.79801         0.005556      0.004029      0.061212
      8.69325      6.43333     19.25312         0.008617      0.019589      0.035077
      9.88449      7.19873     19.25459        -0.008135      0.003148      0.006838
      9.96011      7.14870     22.74098        -0.000135      0.019733      0.051139
     11.17729      7.87766     22.70086        -0.011991      0.010823      0.049379
      7.28743      0.11683     19.23520        -0.002908      0.015467     -0.049189
      8.52786      0.80547     19.19492        -0.017882      0.011191     -0.050630
      8.52180      0.89710     22.68178         0.001090      0.008326     -0.007009
      9.78078      1.54505     22.68343        -0.020577      0.002459     -0.035446
      8.62485      2.20407     19.23886         0.012290     -0.021492     -0.004071
      9.86906      2.90415     19.19221        -0.000833      0.016900      0.008946
      9.83528      2.94133     22.74428         0.000832     -0.016953     -0.009025
     11.07949      3.64142     22.69758        -0.012287      0.021500      0.004057
      9.92355      4.30043     19.25306         0.020705     -0.002340      0.035376
     11.18253      4.94839     19.25466        -0.001205     -0.008378      0.006987
     11.17647      5.04002     22.74143         0.017435     -0.011135      0.050759
     12.41690      5.72866     22.70112         0.003100     -0.015366      0.049333
     11.13724      6.42182     19.25362         0.000216      0.000156     -0.009883
     12.35208      7.12259     19.19741        -0.001109     -0.000443     -0.049377
     12.40892      7.15609     22.72579         0.000988      0.000373      0.049522
     13.62375      7.85686     22.66967        -0.000140     -0.000120      0.009917
 -----------------------------------------------------------------------------------
    total drift:                               -0.000093     -0.000062     -0.000198


--------------------------------------------------------------------------------------------------------



  FREE ENERGIE OF THE ION-ELECTRON SYSTEM (eV)
  ---------------------------------------------------
  free  energy   TOTEN  =      -567.41819877 eV

  energy  without entropy=     -567.41819877  energy(sigma->0) =     -567.41819877
 
 d Force = 0.1832933E-02[ 0.140E-02, 0.227E-02]  d Energy = 0.1806270E-02 0.267E-04
 d Force = 0.2402614E+01[ 0.240E+01, 0.240E+01]  d Ewald  =-0.2626004E+02 0.287E+02


--------------------------------------------------------------------------------------------------------


    POTLOK:  cpu time    0.4424: real time    0.4435


--------------------------------------------------------------------------------------------------------


 Quasi-Newton relaxation of ions (Broydens 2nd method)
  g(Force)  = 0.412E-02   g(Stress)= 0.179E-03

 retain information from N=  3 steps
 eigenvalues of (default step * inverse Hessian matrix)
  average eigenvalue of G=   2.0107
 eigenvalue spectrum of G is  0.0505  2.9907  2.9907


--------------------------------------------------------------------------------------------------------


  
 reached required accuracy - stopping structural energy minimisation
     LOOP+:  cpu time  652.0909: real time  653.7952
    4ORBIT:  cpu time    0.0000: real time    0.0000

 total amount of memory used by VASP MPI-rank0   343151. kBytes
=======================================================================

   base      :      30000. kBytes
   nonl-proj :      53997. kBytes
   fftplans  :      41100. kBytes
   grid      :      57575. kBytes
   one-center:         24. kBytes
   wavefun   :     160455. kBytes
 
  
  
 General timing and accounting informations for this job:
 ========================================================
  
                  Total CPU time used (sec):    23759.891
                            User time (sec):    22982.172
                          System time (sec):      777.720
                         Elapsed time (sec):    23823.128
  
                   Maximum memory used (kb):      451148.
                   Average memory used (kb):           0.
  
                          Minor page faults:     18317894
                          Major page faults:            7
                 Voluntary context switches:        10703
