<?xml version="1.0" encoding="ISO-8859-1"?>
<modeling>
 <generator>
  <i name="program" type="string">vasp </i>
  <i name="version" type="string">5.4.4.18Apr17-6-g9f103f2a35  </i>
  <i name="subversion" type="string">(build Jan 12 2023 11:40:15) complex            parallel </i>
  <i name="platform" type="string">LinuxIFC </i>
  <i name="date" type="string">2023 12 04 </i>
  <i name="time" type="string">09:37:52 </i>
 </generator>
 <incar>
  <i type="int" name="ISTART">     0</i>
  <i type="string" name="PREC">accurate   (precision level)</i>
  <i type="string" name="ALGO"> Normal</i>
  <i type="int" name="ISPIN">     1</i>
  <i type="int" name="ICHARG">     2</i>
  <i type="int" name="NELM">   150</i>
  <i type="int" name="IBRION">     1</i>
  <i name="EDIFF">      0.00000010</i>
  <i name="EDIFFG">      0.01000000</i>
  <i type="int" name="NSW">  1000</i>
  <i type="int" name="ISIF">     3</i>
  <i name="ENCUT">    850.00000000</i>
  <i type="logical" name="LREAL"> F  </i>
  <i type="int" name="ISMEAR">    -5</i>
  <i name="SIGMA">      0.02000000</i>
  <i name="KSPACING">      0.15000000</i>
  <i type="logical" name="KGAMMA"> T  </i>
  <i type="logical" name="LWAVE"> F  </i>
  <i type="logical" name="LCHARG"> F  </i>
  <v type="int" name="KPOINT_BSE">    -1     0     0     0</v>
  <i type="int" name="NELM">   150</i>
 </incar>
 <structure name="primitive_cell" >
  <crystal>
   <varray name="basis" >
    <v>       9.84672000       0.00000000       0.00000000 </v>
    <v>       4.93000000       8.52848000       0.00000000 </v>
    <v>       0.00000000       0.00000000      50.00000000 </v>
   </varray>
   <i name="volume">   4198.87772928 </i>
   <varray name="rec_basis" >
    <v>       0.10155666      -0.05870616       0.00000000 </v>
    <v>       0.00000000       0.11725419       0.00000000 </v>
    <v>       0.00000000       0.00000000       0.02000000 </v>
   </varray>
  </crystal>
  <varray name="positions" >
   <v>      -0.00328588      -0.00340128       0.38387190 </v>
   <v>       0.07817809       0.07805861       0.38311355 </v>
   <v>      -0.17065156       0.08257652       0.38496636 </v>
   <v>       0.08266948      -0.17073431       0.38497445 </v>
   <v>       0.24915288      -0.24959008       0.38543145 </v>
   <v>      -0.24948883       0.24903305       0.38541555 </v>
   <v>      -0.25539894       0.00134061       0.38587227 </v>
   <v>       0.00145078      -0.25549567       0.38587240 </v>
   <v>       0.24431058       0.00210853       0.38354735 </v>
   <v>       0.00228531       0.24416142       0.38354110 </v>
   <v>      -0.16811983      -0.16821637       0.38528629 </v>
   <v>       0.33180346      -0.16541280       0.38436669 </v>
   <v>      -0.16528588       0.33167702       0.38435407 </v>
   <v>       0.31252023       0.09618184       0.38489037 </v>
   <v>       0.09639621       0.31235389       0.38488528 </v>
   <v>      -0.41429720       0.33461067       0.38955108 </v>
   <v>       0.33471143      -0.41434684       0.38956832 </v>
   <v>      -0.08304125      -0.08292727       0.45417417 </v>
   <v>      -0.42362572       0.09063882       0.38905635 </v>
   <v>       0.09074370      -0.42370594       0.38905413 </v>
   <v>       0.08185012       0.08194452       0.45366302 </v>
   <v>       0.08986537      -0.17402428       0.45434441 </v>
   <v>      -0.17415069       0.08998121       0.45435392 </v>
   <v>       0.16850277      -0.08694546       0.45472239 </v>
   <v>      -0.08706042       0.16861337       0.45473336 </v>
   <v>      -0.25035043      -0.25050753       0.38582187 </v>
   <v>      -0.49552473       0.25315628       0.39452964 </v>
   <v>       0.25325593      -0.49555810       0.39454276 </v>
   <v>       0.49810182      -0.24649105       0.38528048 </v>
   <v>      -0.24633402       0.49795119       0.38526997 </v>
   <v>       0.16364060       0.16372089       0.45071975 </v>
   <v>      -0.16527622      -0.16522119       0.45470840 </v>
   <v>       0.18335883      -0.34856034       0.45338085 </v>
   <v>      -0.34870352       0.18347291       0.45339056 </v>
   <v>       0.33480069      -0.16802150       0.45563468 </v>
   <v>      -0.16810579       0.33488478       0.45564798 </v>
   <v>       0.48324629       0.01512243       0.38661954 </v>
   <v>       0.01530902       0.48308936       0.38661050 </v>
   <v>      -0.49703198      -0.49715413       0.38928378 </v>
   <v>       0.33189526       0.08091522       0.45043142 </v>
   <v>       0.08090606       0.33195535       0.45044947 </v>
   <v>      -0.42414008       0.09027011       0.45094488 </v>
   <v>       0.09023018      -0.42407454       0.45094237 </v>
   <v>      -0.42326212      -0.15940699       0.38565430 </v>
   <v>      -0.15923942      -0.42342071       0.38564540 </v>
   <v>      -0.33484338      -0.07793809       0.45412363 </v>
   <v>      -0.07799213      -0.33477590       0.45412400 </v>
   <v>      -0.41524551      -0.41538396       0.38634090 </v>
   <v>       0.41745142      -0.08384741       0.45456743 </v>
   <v>      -0.08390359       0.41752749       0.45458455 </v>
   <v>       0.42229505      -0.33554582       0.45645513 </v>
   <v>      -0.33568072       0.42240259       0.45646130 </v>
   <v>       0.35407975      -0.42961337       0.45511303 </v>
   <v>      -0.42978507       0.35420528       0.45511816 </v>
   <v>       0.34953838       0.34949288       0.40737061 </v>
   <v>       0.41335126       0.16212183       0.44545722 </v>
   <v>       0.16212993       0.41340803       0.44547035 </v>
   <v>       0.31706956       0.31707291       0.43262920 </v>
   <v>      -0.41606334      -0.16271146       0.45502184 </v>
   <v>      -0.16275411      -0.41600999       0.45503101 </v>
   <v>      -0.41157134      -0.41149586       0.45688724 </v>
   <v>      -0.33010712      -0.33003448       0.45612558 </v>
  </varray>
 </structure>
 <varray name="primitive_index" >
  <v type="int" >        1 </v>
  <v type="int" >        2 </v>
  <v type="int" >       48 </v>
  <v type="int" >       14 </v>
  <v type="int" >       27 </v>
  <v type="int" >       51 </v>
  <v type="int" >       47 </v>
  <v type="int" >       13 </v>
  <v type="int" >       17 </v>
  <v type="int" >        5 </v>
  <v type="int" >       60 </v>
  <v type="int" >       28 </v>
  <v type="int" >       52 </v>
  <v type="int" >       18 </v>
  <v type="int" >        6 </v>
  <v type="int" >       36 </v>
  <v type="int" >       24 </v>
  <v type="int" >       62 </v>
  <v type="int" >       32 </v>
  <v type="int" >       10 </v>
  <v type="int" >        3 </v>
  <v type="int" >       15 </v>
  <v type="int" >       49 </v>
  <v type="int" >       16 </v>
  <v type="int" >       50 </v>
  <v type="int" >       59 </v>
  <v type="int" >       35 </v>
  <v type="int" >       23 </v>
  <v type="int" >       43 </v>
  <v type="int" >       55 </v>
  <v type="int" >        4 </v>
  <v type="int" >       61 </v>
  <v type="int" >       12 </v>
  <v type="int" >       34 </v>
  <v type="int" >       29 </v>
  <v type="int" >       53 </v>
  <v type="int" >       31 </v>
  <v type="int" >        9 </v>
  <v type="int" >       39 </v>
  <v type="int" >       19 </v>
  <v type="int" >        7 </v>
  <v type="int" >       33 </v>
  <v type="int" >       11 </v>
  <v type="int" >       44 </v>
  <v type="int" >       56 </v>
  <v type="int" >       46 </v>
  <v type="int" >       58 </v>
  <v type="int" >       40 </v>
  <v type="int" >       30 </v>
  <v type="int" >       54 </v>
  <v type="int" >       26 </v>
  <v type="int" >       38 </v>
  <v type="int" >       25 </v>
  <v type="int" >       37 </v>
  <v type="int" >       21 </v>
  <v type="int" >       20 </v>
  <v type="int" >        8 </v>
  <v type="int" >       22 </v>
  <v type="int" >       45 </v>
  <v type="int" >       57 </v>
  <v type="int" >       41 </v>
  <v type="int" >       42 </v>
 </varray>
 <kpoints>
  <generation param="Gamma">
   <v type="int" name="divisions">       5        5        1 </v>
   <v name="usershift">      0.00000000       0.00000000       0.00000000 </v>
   <v name="genvec1">      0.20000000      -0.00000000       0.00000000 </v>
   <v name="genvec2">      0.00000000       0.20000000       0.00000000 </v>
   <v name="genvec3">      0.00000000       0.00000000       1.00000000 </v>
   <v name="shift">      0.00000000       0.00000000       0.00000000 </v>
  </generation>
  <varray name="kpointlist" >
   <v>       0.00000000       0.00000000       0.00000000 </v>
   <v>       0.20000000       0.00000000       0.00000000 </v>
   <v>       0.40000000       0.00000000       0.00000000 </v>
   <v>       0.00000000       0.20000000       0.00000000 </v>
   <v>       0.20000000       0.20000000       0.00000000 </v>
   <v>       0.40000000       0.20000000       0.00000000 </v>
   <v>      -0.40000000       0.20000000       0.00000000 </v>
   <v>      -0.20000000       0.20000000       0.00000000 </v>
   <v>       0.00000000       0.40000000       0.00000000 </v>
   <v>       0.20000000       0.40000000       0.00000000 </v>
   <v>       0.40000000       0.40000000       0.00000000 </v>
   <v>      -0.40000000       0.40000000       0.00000000 </v>
   <v>      -0.20000000       0.40000000       0.00000000 </v>
  </varray>
  <varray name="weights" >
   <v>       0.04000000 </v>
   <v>       0.08000000 </v>
   <v>       0.08000000 </v>
   <v>       0.08000000 </v>
   <v>       0.08000000 </v>
   <v>       0.08000000 </v>
   <v>       0.08000000 </v>
   <v>       0.08000000 </v>
   <v>       0.08000000 </v>
   <v>       0.08000000 </v>
   <v>       0.08000000 </v>
   <v>       0.08000000 </v>
   <v>       0.08000000 </v>
  </varray>
  <varray name="tetrahedronlist"  type="int" >
   <v type="int" >        2        1        1        2        5 </v>
   <v type="int" >        2        1        1        4        5 </v>
   <v type="int" >        2        1        4        4        5 </v>
   <v type="int" >        2        1        2        2        5 </v>
   <v type="int" >        2        1        2        5        5 </v>
   <v type="int" >        2        1        4        5        5 </v>
   <v type="int" >        2        2        2        3        6 </v>
   <v type="int" >        2        2        2        5        6 </v>
   <v type="int" >        2        2        5        5        6 </v>
   <v type="int" >        2        2        3        3        6 </v>
   <v type="int" >        2        2        3        6        6 </v>
   <v type="int" >        2        2        5        6        6 </v>
   <v type="int" >        4        3        3        3        7 </v>
   <v type="int" >        2        3        3        6        7 </v>
   <v type="int" >        2        3        6        6        7 </v>
   <v type="int" >        2        3        3        7        7 </v>
   <v type="int" >        2        3        6        7        7 </v>
   <v type="int" >        2        2        3        3        8 </v>
   <v type="int" >        2        3        3        7        8 </v>
   <v type="int" >        2        3        7        7        8 </v>
   <v type="int" >        2        2        2        3        8 </v>
   <v type="int" >        2        2        3        8        8 </v>
   <v type="int" >        2        3        7        8        8 </v>
   <v type="int" >        2        1        2        2        4 </v>
   <v type="int" >        2        2        2        4        8 </v>
   <v type="int" >        2        2        4        8        8 </v>
   <v type="int" >        2        1        1        2        4 </v>
   <v type="int" >        2        1        2        4        4 </v>
   <v type="int" >        2        2        4        4        8 </v>
   <v type="int" >        2        4        4        5       10 </v>
   <v type="int" >        2        4        4        9       10 </v>
   <v type="int" >        2        4        9        9       10 </v>
   <v type="int" >        2        4        5        5       10 </v>
   <v type="int" >        2        4        5       10       10 </v>
   <v type="int" >        2        4        9       10       10 </v>
   <v type="int" >        2        5        5        6       11 </v>
   <v type="int" >        2        5        5       10       11 </v>
   <v type="int" >        2        5       10       10       11 </v>
   <v type="int" >        2        5        6        6       11 </v>
   <v type="int" >        2        5        6       11       11 </v>
   <v type="int" >        2        5       10       11       11 </v>
   <v type="int" >        2        6        6        7       12 </v>
   <v type="int" >        2        6        6       11       12 </v>
   <v type="int" >        2        6       11       11       12 </v>
   <v type="int" >        2        6        7        7       12 </v>
   <v type="int" >        2        6        7       12       12 </v>
   <v type="int" >        2        6       11       12       12 </v>
   <v type="int" >        2        7        7        8       13 </v>
   <v type="int" >        2        7        7       12       13 </v>
   <v type="int" >        2        7       12       12       13 </v>
   <v type="int" >        2        7        8        8       13 </v>
   <v type="int" >        2        7        8       13       13 </v>
   <v type="int" >        2        7       12       13       13 </v>
   <v type="int" >        2        4        8        8        9 </v>
   <v type="int" >        2        8        8        9       13 </v>
   <v type="int" >        2        8        9       13       13 </v>
   <v type="int" >        2        4        4        8        9 </v>
   <v type="int" >        2        4        8        9        9 </v>
   <v type="int" >        2        8        9        9       13 </v>
   <v type="int" >        2        9        9       10       13 </v>
   <v type="int" >        4        9        9        9       13 </v>
   <v type="int" >        2        9       10       10       13 </v>
   <v type="int" >        2        9       10       13       13 </v>
   <v type="int" >        2        9        9       13       13 </v>
   <v type="int" >        2       10       10       11       12 </v>
   <v type="int" >        2       10       10       12       13 </v>
   <v type="int" >        2       10       12       13       13 </v>
   <v type="int" >        2       10       11       11       12 </v>
   <v type="int" >        2       10       11       12       12 </v>
   <v type="int" >        2       10       12       12       13 </v>
   <v type="int" >        4       11       11       11       12 </v>
   <v type="int" >        2       11       11       12       12 </v>
  </varray>
  <i name="volumeweight">      0.00666667 </i>
 </kpoints>
 <parameters>
  <separator name="general" >
   <i type="string" name="SYSTEM">unknown system</i>
   <i type="logical" name="LCOMPAT"> F  </i>
  </separator>
  <separator name="electronic" >
   <i type="string" name="PREC">accura</i>
   <i name="ENMAX">    850.00000000</i>
   <i name="ENAUG">    644.87300000</i>
   <i name="EDIFF">      0.00000010</i>
   <i type="int" name="IALGO">    38</i>
   <i type="int" name="IWAVPR">    11</i>
   <i type="int" name="NBANDS">   156</i>
   <i name="NELECT">    248.00000000</i>
   <i type="int" name="TURBO">     0</i>
   <i type="int" name="IRESTART">     0</i>
   <i type="int" name="NREBOOT">     0</i>
   <i type="int" name="NMIN">     0</i>
   <i name="EREF">      0.00000000</i>
   <separator name="electronic smearing" >
    <i type="int" name="ISMEAR">    -5</i>
    <i name="SIGMA">      0.02000000</i>
    <i name="KSPACING">      0.15000000</i>
    <i type="logical" name="KGAMMA"> T  </i>
   </separator>
   <separator name="electronic projectors" >
    <i type="logical" name="LREAL"> F  </i>
    <v name="ROPT">      0.00000000</v>
    <i type="int" name="LMAXPAW">  -100</i>
    <i type="int" name="LMAXMIX">     2</i>
    <i type="logical" name="NLSPLINE"> F  </i>
   </separator>
   <separator name="electronic startup" >
    <i type="int" name="ISTART">     0</i>
    <i type="int" name="ICHARG">     2</i>
    <i type="int" name="INIWAV">     1</i>
   </separator>
   <separator name="electronic spin" >
    <i type="int" name="ISPIN">     1</i>
    <i type="logical" name="LNONCOLLINEAR"> F  </i>
    <v name="MAGMOM">      1.00000000      1.00000000      1.00000000      1.00000000      1.00000000      1.00000000      1.00000000      1.00000000      1.00000000      1.00000000      1.00000000      1.00000000      1.00000000      1.00000000      1.00000000      1.00000000      1.00000000      1.00000000      1.00000000      1.00000000
      1.00000000      1.00000000      1.00000000      1.00000000      1.00000000      1.00000000      1.00000000      1.00000000      1.00000000      1.00000000      1.00000000      1.00000000      1.00000000      1.00000000      1.00000000      1.00000000      1.00000000      1.00000000      1.00000000      1.00000000
      1.00000000      1.00000000      1.00000000      1.00000000      1.00000000      1.00000000      1.00000000      1.00000000      1.00000000      1.00000000      1.00000000      1.00000000      1.00000000      1.00000000      1.00000000      1.00000000      1.00000000      1.00000000      1.00000000      1.00000000
      1.00000000      1.00000000</v>
    <i name="NUPDOWN">     -1.00000000</i>
    <i type="logical" name="LSORBIT"> F  </i>
    <v name="SAXIS">      0.00000000      0.00000000      1.00000000</v>
    <i type="logical" name="LSPIRAL"> F  </i>
    <v name="QSPIRAL">      0.00000000      0.00000000      0.00000000</v>
    <i type="logical" name="LZEROZ"> F  </i>
   </separator>
   <separator name="electronic exchange-correlation" >
    <i type="logical" name="LASPH"> F  </i>
    <i type="logical" name="LMETAGGA"> F  </i>
   </separator>
   <separator name="electronic convergence" >
    <i type="int" name="NELM">   150</i>
    <i type="int" name="NELMDL">    -5</i>
    <i type="int" name="NELMIN">     2</i>
    <i name="ENINI">    850.00000000</i>
    <separator name="electronic convergence detail" >
     <i type="logical" name="LDIAG"> T  </i>
     <i type="logical" name="LSUBROT"> F  </i>
     <i name="WEIMIN">      0.00100000</i>
     <i name="EBREAK">      0.00000000</i>
     <i name="DEPER">      0.30000000</i>
     <i type="int" name="NRMM">     4</i>
     <i name="TIME">      0.40000000</i>
    </separator>
   </separator>
   <separator name="electronic mixer" >
    <i name="AMIX">      0.40000000</i>
    <i name="BMIX">      1.00000000</i>
    <i name="AMIN">      0.10000000</i>
    <i name="AMIX_MAG">      1.60000000</i>
    <i name="BMIX_MAG">      1.00000000</i>
    <separator name="electronic mixer details" >
     <i type="int" name="IMIX">     4</i>
     <i type="logical" name="MIXFIRST"> F  </i>
     <i type="int" name="MAXMIX">   -45</i>
     <i name="WC">    100.00000000</i>
     <i type="int" name="INIMIX">     1</i>
     <i type="int" name="MIXPRE">     1</i>
     <i type="int" name="MREMOVE">     5</i>
    </separator>
   </separator>
   <separator name="electronic dipolcorrection" >
    <i type="logical" name="LDIPOL"> F  </i>
    <i type="logical" name="LMONO"> F  </i>
    <i type="int" name="IDIPOL">     0</i>
    <i name="EPSILON">      1.00000000</i>
    <v name="DIPOL">   -100.00000000   -100.00000000   -100.00000000</v>
    <i name="EFIELD">      0.00000000</i>
   </separator>
  </separator>
  <separator name="grids" >
   <i type="int" name="NGX">    96</i>
   <i type="int" name="NGY">    96</i>
   <i type="int" name="NGZ">   480</i>
   <i type="int" name="NGXF">   192</i>
   <i type="int" name="NGYF">   192</i>
   <i type="int" name="NGZF">   960</i>
   <i type="logical" name="ADDGRID"> F  </i>
  </separator>
  <separator name="ionic" >
   <i type="int" name="NSW">  1000</i>
   <i type="int" name="IBRION">     1</i>
   <i type="int" name="MDALGO">     0</i>
   <i type="int" name="ISIF">     3</i>
   <i name="PSTRESS">      0.00000000</i>
   <i name="EDIFFG">      0.01000000</i>
   <i type="int" name="NFREE">     0</i>
   <i name="POTIM">      0.50000000</i>
   <i name="SMASS">     -3.00000000</i>
   <i name="SCALEE">      1.00000000</i>
  </separator>
  <separator name="ionic md" >
   <i name="TEBEG">      0.00010000</i>
   <i name="TEEND">      0.00010000</i>
   <i type="int" name="NBLOCK">     1</i>
   <i type="int" name="KBLOCK">  1000</i>
   <i type="int" name="NPACO">   256</i>
   <i name="APACO">     16.00000000</i>
  </separator>
  <separator name="symmetry" >
   <i type="int" name="ISYM">     2</i>
   <i name="SYMPREC">      0.00001000</i>
  </separator>
  <separator name="dos" >
   <i type="int" name="LORBIT">     0</i>
   <v name="RWIGS">     -1.00000000</v>
   <i type="int" name="NEDOS">   301</i>
   <i name="EMIN">     10.00000000</i>
   <i name="EMAX">    -10.00000000</i>
   <i name="EFERMI">      0.00000000</i>
  </separator>
  <separator name="writing" >
   <i type="int" name="NWRITE">     2</i>
   <i type="logical" name="LWAVE"> F  </i>
   <i type="logical" name="LDOWNSAMPLE"> F  </i>
   <i type="logical" name="LCHARG"> F  </i>
   <i type="logical" name="LPARD"> F  </i>
   <i type="logical" name="LVTOT"> F  </i>
   <i type="logical" name="LVHAR"> F  </i>
   <i type="logical" name="LELF"> F  </i>
   <i type="logical" name="LOPTICS"> F  </i>
   <v name="STM">      0.00000000      0.00000000      0.00000000      0.00000000      0.00000000      0.00000000      0.00000000</v>
  </separator>
  <separator name="performance" >
   <i type="int" name="NPAR">     6</i>
   <i type="int" name="NSIM">     4</i>
   <i type="int" name="NBLK">    -1</i>
   <i type="logical" name="LPLANE"> T  </i>
   <i type="logical" name="LSCALAPACK"> F  </i>
   <i type="logical" name="LSCAAWARE"> F  </i>
   <i type="logical" name="LSCALU"> F  </i>
   <i type="logical" name="LASYNC"> F  </i>
   <i type="logical" name="LORBITALREAL"> F  </i>
  </separator>
  <separator name="miscellaneous" >
   <i type="int" name="IDIOT">     3</i>
   <i type="int" name="ISPECIAL">     0</i>
   <i type="logical" name="LMUSIC"> F  </i>
   <v name="POMASS">     12.01100000</v>
   <v name="DARWINR">      0.00000000</v>
   <v name="DARWINV">      1.00000000</v>
   <i type="logical" name="LCORR"> T  </i>
  </separator>
  <i type="logical" name="GGA_COMPAT"> T  </i>
  <i type="logical" name="LBERRY"> F  </i>
  <i type="int" name="ICORELEVEL">     0</i>
  <i type="logical" name="LDAU"> F  </i>
  <i type="int" name="I_CONSTRAINED_M">     0</i>
  <separator name="electronic exchange-correlation" >
   <i type="string" name="GGA">--</i>
   <i type="int" name="VOSKOWN">     0</i>
   <i type="logical" name="LHFCALC"> F  </i>
   <i type="string" name="PRECFOCK"></i>
   <i type="logical" name="LSYMGRAD"> F  </i>
   <i type="logical" name="LHFONE"> F  </i>
   <i type="logical" name="LRHFCALC"> F  </i>
   <i type="logical" name="LTHOMAS"> F  </i>
   <i type="logical" name="LMODELHF"> F  </i>
   <i name="ENCUT4O">     -1.00000000</i>
   <i type="int" name="EXXOEP">     0</i>
   <i type="int" name="FOURORBIT">     0</i>
   <i name="AEXX">      0.00000000</i>
   <i name="HFALPHA">      0.00000000</i>
   <i name="MCALPHA">      0.00000000</i>
   <i name="ALDAX">      1.00000000</i>
   <i name="AGGAX">      1.00000000</i>
   <i name="ALDAC">      1.00000000</i>
   <i name="AGGAC">      1.00000000</i>
   <i type="int" name="NKREDX">     1</i>
   <i type="int" name="NKREDY">     1</i>
   <i type="int" name="NKREDZ">     1</i>
   <i type="logical" name="SHIFTRED"> F  </i>
   <i type="logical" name="ODDONLY"> F  </i>
   <i type="logical" name="EVENONLY"> F  </i>
   <i type="int" name="LMAXFOCK">     0</i>
   <i type="int" name="NMAXFOCKAE">     0</i>
   <i type="logical" name="LFOCKAEDFT"> F  </i>
   <i name="HFSCREEN">      0.00000000</i>
   <i name="HFSCREENC">      0.00000000</i>
   <i type="int" name="NBANDSGWLOW">     0</i>
  </separator>
  <separator name="vdW DFT" >
   <i type="logical" name="LUSE_VDW"> F  </i>
   <i name="Zab_VDW">     -0.84910000</i>
   <i name="PARAM1">      0.12340000</i>
   <i name="PARAM2">      1.00000000</i>
   <i name="PARAM3">      0.00000000</i>
  </separator>
  <separator name="model GW" >
   <i type="int" name="MODEL_GW">     0</i>
   <i name="MODEL_EPS0">     40.63430061</i>
   <i name="MODEL_ALPHA">      1.00000000</i>
  </separator>
  <separator name="linear response parameters" >
   <i type="logical" name="LEPSILON"> F  </i>
   <i type="logical" name="LRPA"> F  </i>
   <i type="logical" name="LNABLA"> F  </i>
   <i type="logical" name="LVEL"> F  </i>
   <i type="int" name="KINTER">     0</i>
   <i name="CSHIFT">      0.10000000</i>
   <i name="OMEGAMAX">     -1.00000000</i>
   <i name="DEG_THRESHOLD">      0.00200000</i>
   <i name="RTIME">     -0.10000000</i>
   <i name="WPLASMAI">      0.00000000</i>
   <v name="DFIELD">      0.00000000      0.00000000      0.00000000</v>
   <v name="WPLASMA">      0.00000000      0.00000000      0.00000000      0.00000000      0.00000000      0.00000000      0.00000000      0.00000000      0.00000000</v>
  </separator>
  <separator name="orbital magnetization" >
   <i type="logical" name="NUCIND"> F  </i>
   <v name="MAGPOS">      0.00000000      0.00000000      0.00000000</v>
   <i type="logical" name="LNICSALL"> T  </i>
   <i type="logical" name="ORBITALMAG"> F  </i>
   <i type="logical" name="LMAGBLOCH"> F  </i>
   <i type="logical" name="LCHIMAG"> F  </i>
   <i type="logical" name="LGAUGE"> T  </i>
   <i type="int" name="MAGATOM">     0</i>
   <v name="MAGDIPOL">      0.00000000      0.00000000      0.00000000</v>
   <v name="AVECCONST">      0.00000000      0.00000000      0.00000000</v>
  </separator>
  <separator name="response functions" >
   <i type="logical" name="LADDER"> F  </i>
   <i type="logical" name="LRPAFORCE"> F  </i>
   <i type="logical" name="LFXC"> F  </i>
   <i type="logical" name="LHARTREE"> T  </i>
   <i type="int" name="IBSE">     0</i>
   <v type="int" name="KPOINT">    -1     0     0     0</v>
   <i type="logical" name="LTCTE"> F  </i>
   <i type="logical" name="LTETE"> F  </i>
   <i type="logical" name="LTRIPLET"> F  </i>
   <i type="logical" name="LFXCEPS"> F  </i>
   <i type="logical" name="LFXHEG"> F  </i>
   <i type="int" name="NATURALO">     2</i>
   <i type="logical" name="L2ORDER"> F  </i>
   <i type="logical" name="LMP2LT"> F  </i>
   <i type="logical" name="LUSEW"> F  </i>
   <i name="ENCUTGW">     -2.00000000</i>
   <i name="ENCUTGWSOFT">     -2.00000000</i>
   <i name="ENCUTLF">     -1.00000000</i>
   <i type="int" name="LMAXMP2">    -1</i>
   <i name="SCISSOR">      0.00000000</i>
   <i type="int" name="NOMEGA">     0</i>
   <i type="int" name="NOMEGAR">     0</i>
   <i type="int" name="NBANDSGW">    -1</i>
   <i type="int" name="NBANDSO">    -1</i>
   <i type="int" name="NBANDSV">    -1</i>
   <i type="int" name="NELM">   150</i>
   <i type="int" name="NELMHF">     1</i>
   <i type="int" name="DIM">     3</i>
   <i type="int" name="ANTIRES">     0</i>
   <i name="OMEGAMAX">    -30.00000000</i>
   <i name="OMEGAMIN">    -30.00000000</i>
   <i name="OMEGATL">   -200.00000000</i>
   <i type="int" name="OMEGAGRID">   140</i>
   <i name="CSHIFT">     -0.10000000</i>
   <i type="logical" name="SELFENERGY"> F  </i>
   <i type="logical" name="LSPECTRAL"> F  </i>
   <i type="logical" name="LSPECTRALGW"> F  </i>
   <i type="logical" name="LSINGLES"> F  </i>
   <i type="logical" name="LFERMIGW"> F  </i>
   <i type="logical" name="ODDONLYGW"> F  </i>
   <i type="logical" name="EVENONLYGW"> F  </i>
   <i type="int" name="NKREDLFX">     1</i>
   <i type="int" name="NKREDLFY">     1</i>
   <i type="int" name="NKREDLFZ">     1</i>
   <i type="int" name="MAXMEM">  2800</i>
   <i type="int" name="TELESCOPE">     0</i>
   <i type="int" name="TAUPAR">     1</i>
   <i type="int" name="OMEGAPAR">    -1</i>
   <i name="LAMBDA">      1.00000000</i>
  </separator>
  <separator name="External order field" >
   <i name="OFIELD_KAPPA">      0.00000000</i>
   <v name="OFIELD_K">      0.00000000      0.00000000      0.00000000</v>
   <i name="OFIELD_Q6_NEAR">      0.00000000</i>
   <i name="OFIELD_Q6_FAR">      0.00000000</i>
   <i name="OFIELD_A">      0.00000000</i>
  </separator>
 </parameters>
 <atominfo>
  <atoms>      62 </atoms>
  <types>       1 </types>
  <array name="atoms" >
   <dimension dim="1">ion</dimension>
   <field type="string">element</field>
   <field type="int">atomtype</field>
   <set>
    <rc><c>C </c><c>   1</c></rc>
    <rc><c>C </c><c>   1</c></rc>
    <rc><c>C </c><c>   1</c></rc>
    <rc><c>C </c><c>   1</c></rc>
    <rc><c>C </c><c>   1</c></rc>
    <rc><c>C </c><c>   1</c></rc>
    <rc><c>C </c><c>   1</c></rc>
    <rc><c>C </c><c>   1</c></rc>
    <rc><c>C </c><c>   1</c></rc>
    <rc><c>C </c><c>   1</c></rc>
    <rc><c>C </c><c>   1</c></rc>
    <rc><c>C </c><c>   1</c></rc>
    <rc><c>C </c><c>   1</c></rc>
    <rc><c>C </c><c>   1</c></rc>
    <rc><c>C </c><c>   1</c></rc>
    <rc><c>C </c><c>   1</c></rc>
    <rc><c>C </c><c>   1</c></rc>
    <rc><c>C </c><c>   1</c></rc>
    <rc><c>C </c><c>   1</c></rc>
    <rc><c>C </c><c>   1</c></rc>
    <rc><c>C </c><c>   1</c></rc>
    <rc><c>C </c><c>   1</c></rc>
    <rc><c>C </c><c>   1</c></rc>
    <rc><c>C </c><c>   1</c></rc>
    <rc><c>C </c><c>   1</c></rc>
    <rc><c>C </c><c>   1</c></rc>
    <rc><c>C </c><c>   1</c></rc>
    <rc><c>C </c><c>   1</c></rc>
    <rc><c>C </c><c>   1</c></rc>
    <rc><c>C </c><c>   1</c></rc>
    <rc><c>C </c><c>   1</c></rc>
    <rc><c>C </c><c>   1</c></rc>
    <rc><c>C </c><c>   1</c></rc>
    <rc><c>C </c><c>   1</c></rc>
    <rc><c>C </c><c>   1</c></rc>
    <rc><c>C </c><c>   1</c></rc>
    <rc><c>C </c><c>   1</c></rc>
    <rc><c>C </c><c>   1</c></rc>
    <rc><c>C </c><c>   1</c></rc>
    <rc><c>C </c><c>   1</c></rc>
    <rc><c>C </c><c>   1</c></rc>
    <rc><c>C </c><c>   1</c></rc>
    <rc><c>C </c><c>   1</c></rc>
    <rc><c>C </c><c>   1</c></rc>
    <rc><c>C </c><c>   1</c></rc>
    <rc><c>C </c><c>   1</c></rc>
    <rc><c>C </c><c>   1</c></rc>
    <rc><c>C </c><c>   1</c></rc>
    <rc><c>C </c><c>   1</c></rc>
    <rc><c>C </c><c>   1</c></rc>
    <rc><c>C </c><c>   1</c></rc>
    <rc><c>C </c><c>   1</c></rc>
    <rc><c>C </c><c>   1</c></rc>
    <rc><c>C </c><c>   1</c></rc>
    <rc><c>C </c><c>   1</c></rc>
    <rc><c>C </c><c>   1</c></rc>
    <rc><c>C </c><c>   1</c></rc>
    <rc><c>C </c><c>   1</c></rc>
    <rc><c>C </c><c>   1</c></rc>
    <rc><c>C </c><c>   1</c></rc>
    <rc><c>C </c><c>   1</c></rc>
    <rc><c>C </c><c>   1</c></rc>
   </set>
  </array>
  <array name="atomtypes" >
   <dimension dim="1">type</dimension>
   <field type="int">atomspertype</field>
   <field type="string">element</field>
   <field>mass</field>
   <field>valence</field>
   <field type="string">pseudopotential</field>
   <set>
    <rc><c>  62</c><c>C </c><c>     12.01100000</c><c>      4.00000000</c><c>  PAW_PBE C 08Apr2002                   </c></rc>
   </set>
  </array>
 </atominfo>
 <structure name="initialpos" >
  <crystal>
   <varray name="basis" >
    <v>       9.84672000       0.00000000       0.00000000 </v>
    <v>       4.93000000       8.52848000       0.00000000 </v>
    <v>       0.00000000       0.00000000      50.00000000 </v>
   </varray>
   <i name="volume">   4198.87772928 </i>
   <varray name="rec_basis" >
    <v>       0.10155666      -0.05870616       0.00000000 </v>
    <v>       0.00000000       0.11725419       0.00000000 </v>
    <v>       0.00000000       0.00000000       0.02000000 </v>
   </varray>
  </crystal>
  <varray name="positions" >
   <v>       0.99671412       0.99659872       0.38387190 </v>
   <v>       0.07817809       0.07805861       0.38311355 </v>
   <v>       0.08185012       0.08194452       0.45366302 </v>
   <v>       0.16364060       0.16372089       0.45071975 </v>
   <v>       0.00228531       0.24416142       0.38354110 </v>
   <v>       0.09639621       0.31235389       0.38488528 </v>
   <v>       0.08090606       0.33195535       0.45044947 </v>
   <v>       0.16212993       0.41340803       0.44547035 </v>
   <v>       0.01530902       0.48308936       0.38661050 </v>
   <v>       0.09074370       0.57629406       0.38905413 </v>
   <v>       0.09023018       0.57592546       0.45094237 </v>
   <v>       0.18335883       0.65143966       0.45338085 </v>
   <v>       0.00145078       0.74450433       0.38587240 </v>
   <v>       0.08266948       0.82926569       0.38497445 </v>
   <v>       0.08986537       0.82597572       0.45434441 </v>
   <v>       0.16850277       0.91305454       0.45472239 </v>
   <v>       0.24431058       0.00210853       0.38354735 </v>
   <v>       0.31252023       0.09618184       0.38489037 </v>
   <v>       0.33189526       0.08091522       0.45043142 </v>
   <v>       0.41335126       0.16212183       0.44545722 </v>
   <v>       0.34953838       0.34949288       0.40737061 </v>
   <v>       0.31706956       0.31707291       0.43262920 </v>
   <v>       0.25325593       0.50444190       0.39454276 </v>
   <v>       0.33471143       0.58565316       0.38956832 </v>
   <v>       0.35407975       0.57038663       0.45511303 </v>
   <v>       0.42229505       0.66445418       0.45645513 </v>
   <v>       0.24915288       0.75040992       0.38543145 </v>
   <v>       0.33180346       0.83458720       0.38436669 </v>
   <v>       0.33480069       0.83197850       0.45563468 </v>
   <v>       0.41745142       0.91615259       0.45456743 </v>
   <v>       0.48324629       0.01512243       0.38661954 </v>
   <v>       0.57637428       0.09063882       0.38905635 </v>
   <v>       0.57585992       0.09027011       0.45094488 </v>
   <v>       0.65129648       0.18347291       0.45339056 </v>
   <v>       0.50447527       0.25315628       0.39452964 </v>
   <v>       0.58570280       0.33461067       0.38955108 </v>
   <v>       0.57021493       0.35420528       0.45511816 </v>
   <v>       0.66431928       0.42240259       0.45646130 </v>
   <v>       0.50296802       0.50284587       0.38928378 </v>
   <v>       0.58475449       0.58461604       0.38634090 </v>
   <v>       0.58842866       0.58850414       0.45688724 </v>
   <v>       0.66989288       0.66996552       0.45612558 </v>
   <v>       0.49810182       0.75350895       0.38528048 </v>
   <v>       0.57673788       0.84059301       0.38565430 </v>
   <v>       0.58393666       0.83728854       0.45502184 </v>
   <v>       0.66515662       0.92206191       0.45412363 </v>
   <v>       0.74460106       0.00134061       0.38587227 </v>
   <v>       0.82934844       0.08257652       0.38496636 </v>
   <v>       0.82584931       0.08998121       0.45435392 </v>
   <v>       0.91293958       0.16861337       0.45473336 </v>
   <v>       0.75051117       0.24903305       0.38541555 </v>
   <v>       0.83471412       0.33167702       0.38435407 </v>
   <v>       0.83189421       0.33488478       0.45564798 </v>
   <v>       0.91609641       0.41752749       0.45458455 </v>
   <v>       0.75366598       0.49795119       0.38526997 </v>
   <v>       0.84076058       0.57657929       0.38564540 </v>
   <v>       0.83724589       0.58399001       0.45503101 </v>
   <v>       0.92200787       0.66522410       0.45412400 </v>
   <v>       0.74964957       0.74949247       0.38582187 </v>
   <v>       0.83188017       0.83178363       0.38528629 </v>
   <v>       0.83472378       0.83477881       0.45470840 </v>
   <v>       0.91695875       0.91707273       0.45417417 </v>
  </varray>
 </structure>
 <calculation>
  <scstep>
   <time name="dav">   80.42   80.61</time>
   <time name="total">   80.82   81.04</time>
   <energy>
    <i name="alphaZ">     75.20389891 </i>
    <i name="ewald"> 208480.42628858 </i>
    <i name="hartreedc">-214993.61293774 </i>
    <i name="XCdc">    814.99374348 </i>
    <i name="pawpsdc">   6728.36687556 </i>
    <i name="pawaedc">  -6763.67003570 </i>
    <i name="eentropy">      0.00000000 </i>
    <i name="bandstr">   -490.22355064 </i>
    <i name="atom">   9123.59704331 </i>
    <i name="e_fr_energy">   2975.08132577 </i>
    <i name="e_wo_entrp">   2975.08132577 </i>
    <i name="e_0_energy">   2975.08132577 </i>
   </energy>
  </scstep>
  <scstep>
   <time name="dav">  109.19  109.46</time>
   <time name="total">  109.20  109.47</time>
   <energy>
    <i name="e_fr_energy">    134.91895074 </i>
    <i name="e_wo_entrp">    134.91895074 </i>
    <i name="e_0_energy">    134.91895074 </i>
   </energy>
  </scstep>
  <scstep>
   <time name="dav">   81.51   81.71</time>
   <time name="total">   81.51   81.72</time>
   <energy>
    <i name="e_fr_energy">   -559.36847428 </i>
    <i name="e_wo_entrp">   -559.36847428 </i>
    <i name="e_0_energy">   -559.36847428 </i>
   </energy>
  </scstep>
  <scstep>
   <time name="dav">   80.93   81.13</time>
   <time name="total">   80.93   81.13</time>
   <energy>
    <i name="e_fr_energy">   -594.20011398 </i>
    <i name="e_wo_entrp">   -594.20011398 </i>
    <i name="e_0_energy">   -594.20011398 </i>
   </energy>
  </scstep>
  <scstep>
   <time name="dav">   85.71   85.95</time>
   <time name="total">   89.87   90.12</time>
   <energy>
    <i name="e_fr_energy">   -595.15027763 </i>
    <i name="e_wo_entrp">   -595.15027763 </i>
    <i name="e_0_energy">   -595.15027763 </i>
   </energy>
  </scstep>
  <scstep>
   <time name="dav">   77.34   77.53</time>
   <time name="total">   81.89   82.10</time>
   <energy>
    <i name="e_fr_energy">   -568.41343711 </i>
    <i name="e_wo_entrp">   -568.41343711 </i>
    <i name="e_0_energy">   -568.41343711 </i>
   </energy>
  </scstep>
  <scstep>
   <time name="dav">   74.93   75.11</time>
   <time name="total">   79.24   79.44</time>
   <energy>
    <i name="e_fr_energy">   -559.56594706 </i>
    <i name="e_wo_entrp">   -559.56594706 </i>
    <i name="e_0_energy">   -559.56594706 </i>
   </energy>
  </scstep>
  <scstep>
   <time name="dav">   77.81   78.00</time>
   <time name="total">   81.97   82.17</time>
   <energy>
    <i name="e_fr_energy">   -559.50897073 </i>
    <i name="e_wo_entrp">   -559.50897073 </i>
    <i name="e_0_energy">   -559.50897073 </i>
   </energy>
  </scstep>
  <scstep>
   <time name="dav">   77.43   77.62</time>
   <time name="total">   81.51   81.71</time>
   <energy>
    <i name="e_fr_energy">   -559.45714824 </i>
    <i name="e_wo_entrp">   -559.45714824 </i>
    <i name="e_0_energy">   -559.45714824 </i>
   </energy>
  </scstep>
  <scstep>
   <time name="dav">   80.10   80.29</time>
   <time name="total">   84.15   84.35</time>
   <energy>
    <i name="e_fr_energy">   -559.44553580 </i>
    <i name="e_wo_entrp">   -559.44553580 </i>
    <i name="e_0_energy">   -559.44553580 </i>
   </energy>
  </scstep>
  <scstep>
   <time name="dav">   75.49   75.68</time>
   <time name="total">   79.53   79.73</time>
   <energy>
    <i name="e_fr_energy">   -559.43511766 </i>
    <i name="e_wo_entrp">   -559.43511766 </i>
    <i name="e_0_energy">   -559.43511766 </i>
   </energy>
  </scstep>
  <scstep>
   <time name="dav">   72.70   72.88</time>
   <time name="total">   76.76   76.95</time>
   <energy>
    <i name="e_fr_energy">   -559.43075066 </i>
    <i name="e_wo_entrp">   -559.43075066 </i>
    <i name="e_0_energy">   -559.43075066 </i>
   </energy>
  </scstep>
  <scstep>
   <time name="dav">   74.13   74.31</time>
   <time name="total">   78.20   78.41</time>
   <energy>
    <i name="e_fr_energy">   -559.43414703 </i>
    <i name="e_wo_entrp">   -559.43414703 </i>
    <i name="e_0_energy">   -559.43414703 </i>
   </energy>
  </scstep>
  <scstep>
   <time name="dav">   73.83   74.01</time>
   <time name="total">   77.90   78.09</time>
   <energy>
    <i name="e_fr_energy">   -559.43854393 </i>
    <i name="e_wo_entrp">   -559.43854393 </i>
    <i name="e_0_energy">   -559.43854393 </i>
   </energy>
  </scstep>
  <scstep>
   <time name="dav">   78.80   78.99</time>
   <time name="total">   82.89   83.10</time>
   <energy>
    <i name="e_fr_energy">   -559.44242285 </i>
    <i name="e_wo_entrp">   -559.44242285 </i>
    <i name="e_0_energy">   -559.44242285 </i>
   </energy>
  </scstep>
  <scstep>
   <time name="dav">   73.51   73.69</time>
   <time name="total">   77.59   77.78</time>
   <energy>
    <i name="e_fr_energy">   -559.44446838 </i>
    <i name="e_wo_entrp">   -559.44446838 </i>
    <i name="e_0_energy">   -559.44446838 </i>
   </energy>
  </scstep>
  <scstep>
   <time name="dav">   72.49   72.69</time>
   <time name="total">   76.56   76.76</time>
   <energy>
    <i name="e_fr_energy">   -559.44651149 </i>
    <i name="e_wo_entrp">   -559.44651149 </i>
    <i name="e_0_energy">   -559.44651149 </i>
   </energy>
  </scstep>
  <scstep>
   <time name="dav">   74.44   74.62</time>
   <time name="total">   78.48   78.68</time>
   <energy>
    <i name="e_fr_energy">   -559.44769384 </i>
    <i name="e_wo_entrp">   -559.44769384 </i>
    <i name="e_0_energy">   -559.44769384 </i>
   </energy>
  </scstep>
  <scstep>
   <time name="dav">   71.66   71.84</time>
   <time name="total">   75.76   75.95</time>
   <energy>
    <i name="e_fr_energy">   -559.44812687 </i>
    <i name="e_wo_entrp">   -559.44812687 </i>
    <i name="e_0_energy">   -559.44812687 </i>
   </energy>
  </scstep>
  <scstep>
   <time name="dav">   68.10   68.27</time>
   <time name="total">   72.16   72.35</time>
   <energy>
    <i name="e_fr_energy">   -559.44841931 </i>
    <i name="e_wo_entrp">   -559.44841931 </i>
    <i name="e_0_energy">   -559.44841931 </i>
   </energy>
  </scstep>
  <scstep>
   <time name="dav">   70.26   70.44</time>
   <time name="total">   74.30   74.49</time>
   <energy>
    <i name="e_fr_energy">   -559.44852994 </i>
    <i name="e_wo_entrp">   -559.44852994 </i>
    <i name="e_0_energy">   -559.44852994 </i>
   </energy>
  </scstep>
  <scstep>
   <time name="dav">   67.32   67.48</time>
   <time name="total">   71.39   71.57</time>
   <energy>
    <i name="e_fr_energy">   -559.44859098 </i>
    <i name="e_wo_entrp">   -559.44859098 </i>
    <i name="e_0_energy">   -559.44859098 </i>
   </energy>
  </scstep>
  <scstep>
   <time name="dav">   60.85   61.00</time>
   <time name="total">   64.91   65.07</time>
   <energy>
    <i name="e_fr_energy">   -559.44861340 </i>
    <i name="e_wo_entrp">   -559.44861340 </i>
    <i name="e_0_energy">   -559.44861340 </i>
   </energy>
  </scstep>
  <scstep>
   <time name="dav">   55.95   56.08</time>
   <time name="total">   60.04   60.20</time>
   <energy>
    <i name="e_fr_energy">   -559.44862459 </i>
    <i name="e_wo_entrp">   -559.44862459 </i>
    <i name="e_0_energy">   -559.44862459 </i>
   </energy>
  </scstep>
  <scstep>
   <time name="dav">   52.54   52.66</time>
   <time name="total">   56.61   56.75</time>
   <energy>
    <i name="e_fr_energy">   -559.44863017 </i>
    <i name="e_wo_entrp">   -559.44863017 </i>
    <i name="e_0_energy">   -559.44863017 </i>
   </energy>
  </scstep>
  <scstep>
   <time name="dav">   51.81   51.94</time>
   <time name="total">   55.87   56.01</time>
   <energy>
    <i name="e_fr_energy">   -559.44863242 </i>
    <i name="e_wo_entrp">   -559.44863242 </i>
    <i name="e_0_energy">   -559.44863242 </i>
   </energy>
  </scstep>
  <scstep>
   <time name="dav">   50.94   51.06</time>
   <time name="total">   54.99   55.13</time>
   <energy>
    <i name="e_fr_energy">   -559.44863364 </i>
    <i name="e_wo_entrp">   -559.44863364 </i>
    <i name="e_0_energy">   -559.44863364 </i>
   </energy>
  </scstep>
  <scstep>
   <time name="dav">   51.88   52.01</time>
   <time name="total">   55.95   56.08</time>
   <energy>
    <i name="e_fr_energy">   -559.44863417 </i>
    <i name="e_wo_entrp">   -559.44863417 </i>
    <i name="e_0_energy">   -559.44863417 </i>
   </energy>
  </scstep>
  <scstep>
   <time name="dav">   53.48   53.62</time>
   <time name="total">   57.57   57.72</time>
   <energy>
    <i name="e_fr_energy">   -559.44863440 </i>
    <i name="e_wo_entrp">   -559.44863440 </i>
    <i name="e_0_energy">   -559.44863440 </i>
   </energy>
  </scstep>
  <scstep>
   <time name="dav">   52.61   52.73</time>
   <time name="total">   52.97   53.09</time>
   <energy>
    <i name="alphaZ">     75.20389891 </i>
    <i name="ewald"> 208480.42628858 </i>
    <i name="hartreedc">-216015.28585921 </i>
    <i name="XCdc">    848.68502239 </i>
    <i name="pawpsdc">  24900.52234918 </i>
    <i name="pawaedc"> -24942.24737393 </i>
    <i name="eentropy">      0.00000000 </i>
    <i name="bandstr">  -3030.35000371 </i>
    <i name="atom">   9123.59704331 </i>
    <i name="e_fr_energy">   -559.44863447 </i>
    <i name="e_wo_entrp">   -559.44863447 </i>
    <i name="e_0_energy">   -559.44863447 </i>
   </energy>
  </scstep>
  <structure>
   <crystal>
    <varray name="basis" >
     <v>       9.84672000       0.00000000       0.00000000 </v>
     <v>       4.93000000       8.52848000       0.00000000 </v>
     <v>       0.00000000       0.00000000      50.00000000 </v>
    </varray>
    <i name="volume">   4198.87772928 </i>
    <varray name="rec_basis" >
     <v>       0.10155666      -0.05870616       0.00000000 </v>
     <v>       0.00000000       0.11725419       0.00000000 </v>
     <v>       0.00000000       0.00000000       0.02000000 </v>
    </varray>
   </crystal>
   <varray name="positions" >
    <v>       0.99671412       0.99659872       0.38387190 </v>
    <v>       0.07817809       0.07805861       0.38311355 </v>
    <v>       0.08185012       0.08194452       0.45366302 </v>
    <v>       0.16364060       0.16372089       0.45071975 </v>
    <v>       0.00228531       0.24416142       0.38354110 </v>
    <v>       0.09639621       0.31235389       0.38488528 </v>
    <v>       0.08090606       0.33195535       0.45044947 </v>
    <v>       0.16212993       0.41340803       0.44547035 </v>
    <v>       0.01530902       0.48308936       0.38661050 </v>
    <v>       0.09074370       0.57629406       0.38905413 </v>
    <v>       0.09023018       0.57592546       0.45094237 </v>
    <v>       0.18335883       0.65143966       0.45338085 </v>
    <v>       0.00145078       0.74450433       0.38587240 </v>
    <v>       0.08266948       0.82926569       0.38497445 </v>
    <v>       0.08986537       0.82597572       0.45434441 </v>
    <v>       0.16850277       0.91305454       0.45472239 </v>
    <v>       0.24431058       0.00210853       0.38354735 </v>
    <v>       0.31252023       0.09618184       0.38489037 </v>
    <v>       0.33189526       0.08091522       0.45043142 </v>
    <v>       0.41335126       0.16212183       0.44545722 </v>
    <v>       0.34953838       0.34949288       0.40737061 </v>
    <v>       0.31706956       0.31707291       0.43262920 </v>
    <v>       0.25325593       0.50444190       0.39454276 </v>
    <v>       0.33471143       0.58565316       0.38956832 </v>
    <v>       0.35407975       0.57038663       0.45511303 </v>
    <v>       0.42229505       0.66445418       0.45645513 </v>
    <v>       0.24915288       0.75040992       0.38543145 </v>
    <v>       0.33180346       0.83458720       0.38436669 </v>
    <v>       0.33480069       0.83197850       0.45563468 </v>
    <v>       0.41745142       0.91615259       0.45456743 </v>
    <v>       0.48324629       0.01512243       0.38661954 </v>
    <v>       0.57637428       0.09063882       0.38905635 </v>
    <v>       0.57585992       0.09027011       0.45094488 </v>
    <v>       0.65129648       0.18347291       0.45339056 </v>
    <v>       0.50447527       0.25315628       0.39452964 </v>
    <v>       0.58570280       0.33461067       0.38955108 </v>
    <v>       0.57021493       0.35420528       0.45511816 </v>
    <v>       0.66431928       0.42240259       0.45646130 </v>
    <v>       0.50296802       0.50284587       0.38928378 </v>
    <v>       0.58475449       0.58461604       0.38634090 </v>
    <v>       0.58842866       0.58850414       0.45688724 </v>
    <v>       0.66989288       0.66996552       0.45612558 </v>
    <v>       0.49810182       0.75350895       0.38528048 </v>
    <v>       0.57673788       0.84059301       0.38565430 </v>
    <v>       0.58393666       0.83728854       0.45502184 </v>
    <v>       0.66515662       0.92206191       0.45412363 </v>
    <v>       0.74460106       0.00134061       0.38587227 </v>
    <v>       0.82934844       0.08257652       0.38496636 </v>
    <v>       0.82584931       0.08998121       0.45435392 </v>
    <v>       0.91293958       0.16861337       0.45473336 </v>
    <v>       0.75051117       0.24903305       0.38541555 </v>
    <v>       0.83471412       0.33167702       0.38435407 </v>
    <v>       0.83189421       0.33488478       0.45564798 </v>
    <v>       0.91609641       0.41752749       0.45458455 </v>
    <v>       0.75366598       0.49795119       0.38526997 </v>
    <v>       0.84076058       0.57657929       0.38564540 </v>
    <v>       0.83724589       0.58399001       0.45503101 </v>
    <v>       0.92200787       0.66522410       0.45412400 </v>
    <v>       0.74964957       0.74949247       0.38582187 </v>
    <v>       0.83188017       0.83178363       0.38528629 </v>
    <v>       0.83472378       0.83477881       0.45470840 </v>
    <v>       0.91695875       0.91707273       0.45417417 </v>
   </varray>
  </structure>
  <varray name="forces" >
   <v>      -0.02527836      -0.01406719       0.01231863 </v>
   <v>      -0.03866611      -0.02231625       0.01212036 </v>
   <v>      -0.00521464      -0.00490803      -0.00582847 </v>
   <v>       0.00995480       0.00654591      -0.01248967 </v>
   <v>      -0.00164442       0.04012849       0.01435334 </v>
   <v>       0.01779723       0.00247425       0.01931036 </v>
   <v>      -0.02643186       0.02515618      -0.00955122 </v>
   <v>       0.01205302      -0.03072798      -0.03086557 </v>
   <v>      -0.04917680      -0.03722964       0.01027734 </v>
   <v>       0.01627725       0.01045772       0.01361236 </v>
   <v>      -0.01520821      -0.01051812      -0.01420895 </v>
   <v>       0.05680630       0.02479732      -0.01045620 </v>
   <v>      -0.00324494       0.01241497       0.01326955 </v>
   <v>      -0.00048190       0.01187137       0.01708804 </v>
   <v>      -0.00569244      -0.01225387      -0.01050509 </v>
   <v>      -0.00862118      -0.01655747      -0.01013686 </v>
   <v>       0.03430261      -0.02100406       0.01426183 </v>
   <v>       0.01170204       0.01379568       0.01926886 </v>
   <v>       0.00963692      -0.03654987      -0.00930100 </v>
   <v>      -0.02323800       0.02711000      -0.03131352 </v>
   <v>       0.04726537       0.02781124      -0.09938746 </v>
   <v>      -0.04773555      -0.02790845       0.10020399 </v>
   <v>       0.02293299      -0.02540411       0.03035100 </v>
   <v>      -0.01108002       0.03414731       0.01041765 </v>
   <v>      -0.01172821      -0.01447643      -0.01970379 </v>
   <v>      -0.03378391       0.02211986      -0.01464410 </v>
   <v>       0.00162513      -0.02414639       0.01653775 </v>
   <v>      -0.00606627      -0.00410743       0.01423114 </v>
   <v>       0.00602615       0.00302837      -0.01391096 </v>
   <v>      -0.00060842       0.02461042      -0.01645408 </v>
   <v>      -0.05661762      -0.02325238       0.01023320 </v>
   <v>       0.01604272       0.01056383       0.01411178 </v>
   <v>      -0.01436710      -0.01053606      -0.01357660 </v>
   <v>       0.04993686       0.03698624      -0.01070645 </v>
   <v>      -0.01045895       0.03059833       0.03008530 </v>
   <v>       0.02458398      -0.02609467       0.01039047 </v>
   <v>      -0.01889196      -0.00280974      -0.01973313 </v>
   <v>       0.00331794      -0.04064584      -0.01447740 </v>
   <v>      -0.01230557      -0.00793530       0.01165003 </v>
   <v>       0.00857863       0.00764068       0.00542462 </v>
   <v>       0.03750866       0.02242983      -0.01208120 </v>
   <v>       0.02227332       0.01295211      -0.01210452 </v>
   <v>       0.00912656       0.01708782       0.00933392 </v>
   <v>       0.00515296       0.00996776       0.01119617 </v>
   <v>       0.00345895      -0.00629817      -0.01697403 </v>
   <v>      -0.00049112      -0.01572412      -0.01307720 </v>
   <v>       0.00999735      -0.00922534       0.01314731 </v>
   <v>       0.01037069      -0.00652447       0.01712035 </v>
   <v>      -0.01406423       0.00116485      -0.01064589 </v>
   <v>      -0.01980569       0.00399145      -0.00990417 </v>
   <v>      -0.02083794       0.01280117       0.01651394 </v>
   <v>      -0.00571137      -0.00082461       0.01434429 </v>
   <v>       0.00509999       0.00165954      -0.01405998 </v>
   <v>       0.02031875      -0.01042999      -0.01634320 </v>
   <v>       0.01988630      -0.00531455       0.00912057 </v>
   <v>       0.01299083      -0.00007659       0.01117727 </v>
   <v>      -0.00318179       0.00455494      -0.01736651 </v>
   <v>      -0.01513103       0.00855558      -0.01291621 </v>
   <v>      -0.03060121      -0.01689974       0.01094445 </v>
   <v>       0.01826005       0.00989777       0.01376447 </v>
   <v>      -0.01562990      -0.00865930      -0.01329805 </v>
   <v>       0.02871240       0.01610515      -0.01015886 </v>
  </varray>
  <varray name="stress" >
   <v>      -4.29393374      11.58759831       0.02669822 </v>
   <v>      11.58759834     -18.23061107       0.01709088 </v>
   <v>       0.02669822       0.01709088      -0.62900187 </v>
  </varray>
  <energy>
   <i name="e_fr_energy">   -566.34430752 </i>
   <i name="e_wo_entrp">   -566.34430752 </i>
   <i name="e_0_energy">      0.00000000 </i>
  </energy>
  <time name="totalsc"> 2434.18 2440.79</time>
 </calculation>
 <calculation>
  <scstep>
   <time name="dav">   78.41   78.60</time>
   <time name="total">   82.49   82.69</time>
   <energy>
    <i name="alphaZ">     78.94499058 </i>
    <i name="ewald"> 218675.81002325 </i>
    <i name="hartreedc">-226173.76776316 </i>
    <i name="XCdc">    861.94393477 </i>
    <i name="pawpsdc">  24900.52209692 </i>
    <i name="pawaedc"> -24942.24712111 </i>
    <i name="eentropy">      0.00000000 </i>
    <i name="bandstr">  -3084.10532623 </i>
    <i name="atom">   9123.59704331 </i>
    <i name="e_fr_energy">   -559.30212167 </i>
    <i name="e_wo_entrp">   -559.30212167 </i>
    <i name="e_0_energy">   -559.30212167 </i>
   </energy>
  </scstep>
  <scstep>
   <time name="dav">   75.06   75.26</time>
   <time name="total">   79.15   79.38</time>
   <energy>
    <i name="e_fr_energy">   -558.55144934 </i>
    <i name="e_wo_entrp">   -558.55144934 </i>
    <i name="e_0_energy">   -558.55144934 </i>
   </energy>
  </scstep>
  <scstep>
   <time name="dav">   72.96   73.14</time>
   <time name="total">   77.00   77.20</time>
   <energy>
    <i name="e_fr_energy">   -558.04096623 </i>
    <i name="e_wo_entrp">   -558.04096623 </i>
    <i name="e_0_energy">   -558.04096623 </i>
   </energy>
  </scstep>
  <scstep>
   <time name="dav">   76.63   76.82</time>
   <time name="total">   80.69   80.90</time>
   <energy>
    <i name="e_fr_energy">   -558.05311801 </i>
    <i name="e_wo_entrp">   -558.05311801 </i>
    <i name="e_0_energy">   -558.05311801 </i>
   </energy>
  </scstep>
  <scstep>
   <time name="dav">   78.08   78.26</time>
   <time name="total">   82.14   82.34</time>
   <energy>
    <i name="e_fr_energy">   -558.05118424 </i>
    <i name="e_wo_entrp">   -558.05118424 </i>
    <i name="e_0_energy">   -558.05118424 </i>
   </energy>
  </scstep>
  <scstep>
   <time name="dav">   77.70   77.89</time>
   <time name="total">   81.80   82.02</time>
   <energy>
    <i name="e_fr_energy">   -558.05099016 </i>
    <i name="e_wo_entrp">   -558.05099016 </i>
    <i name="e_0_energy">   -558.05099016 </i>
   </energy>
  </scstep>
  <scstep>
   <time name="dav">   76.95   77.13</time>
   <time name="total">   81.02   81.26</time>
   <energy>
    <i name="e_fr_energy">   -558.05110574 </i>
    <i name="e_wo_entrp">   -558.05110574 </i>
    <i name="e_0_energy">   -558.05110574 </i>
   </energy>
  </scstep>
  <scstep>
   <time name="dav">   80.21   80.40</time>
   <time name="total">   84.28   84.48</time>
   <energy>
    <i name="e_fr_energy">   -558.05125661 </i>
    <i name="e_wo_entrp">   -558.05125661 </i>
    <i name="e_0_energy">   -558.05125661 </i>
   </energy>
  </scstep>
  <scstep>
   <time name="dav">   75.21   75.39</time>
   <time name="total">   79.28   79.50</time>
   <energy>
    <i name="e_fr_energy">   -558.05154847 </i>
    <i name="e_wo_entrp">   -558.05154847 </i>
    <i name="e_0_energy">   -558.05154847 </i>
   </energy>
  </scstep>
  <scstep>
   <time name="dav">   76.58   76.77</time>
   <time name="total">   80.67   80.87</time>
   <energy>
    <i name="e_fr_energy">   -558.05172681 </i>
    <i name="e_wo_entrp">   -558.05172681 </i>
    <i name="e_0_energy">   -558.05172681 </i>
   </energy>
  </scstep>
  <scstep>
   <time name="dav">   71.88   72.08</time>
   <time name="total">   76.00   76.22</time>
   <energy>
    <i name="e_fr_energy">   -558.05202213 </i>
    <i name="e_wo_entrp">   -558.05202213 </i>
    <i name="e_0_energy">   -558.05202213 </i>
   </energy>
  </scstep>
  <scstep>
   <time name="dav">   76.72   76.92</time>
   <time name="total">   80.80   81.01</time>
   <energy>
    <i name="e_fr_energy">   -558.05212962 </i>
    <i name="e_wo_entrp">   -558.05212962 </i>
    <i name="e_0_energy">   -558.05212962 </i>
   </energy>
  </scstep>
  <scstep>
   <time name="dav">   68.64   68.81</time>
   <time name="total">   72.67   72.85</time>
   <energy>
    <i name="e_fr_energy">   -558.05218635 </i>
    <i name="e_wo_entrp">   -558.05218635 </i>
    <i name="e_0_energy">   -558.05218635 </i>
   </energy>
  </scstep>
  <scstep>
   <time name="dav">   67.02   67.18</time>
   <time name="total">   71.10   71.27</time>
   <energy>
    <i name="e_fr_energy">   -558.05222072 </i>
    <i name="e_wo_entrp">   -558.05222072 </i>
    <i name="e_0_energy">   -558.05222072 </i>
   </energy>
  </scstep>
  <scstep>
   <time name="dav">   65.48   65.63</time>
   <time name="total">   69.56   69.73</time>
   <energy>
    <i name="e_fr_energy">   -558.05224698 </i>
    <i name="e_wo_entrp">   -558.05224698 </i>
    <i name="e_0_energy">   -558.05224698 </i>
   </energy>
  </scstep>
  <scstep>
   <time name="dav">   65.12   65.27</time>
   <time name="total">   69.20   69.37</time>
   <energy>
    <i name="e_fr_energy">   -558.05225774 </i>
    <i name="e_wo_entrp">   -558.05225774 </i>
    <i name="e_0_energy">   -558.05225774 </i>
   </energy>
  </scstep>
  <scstep>
   <time name="dav">   56.98   57.11</time>
   <time name="total">   61.05   61.20</time>
   <energy>
    <i name="e_fr_energy">   -558.05226396 </i>
    <i name="e_wo_entrp">   -558.05226396 </i>
    <i name="e_0_energy">   -558.05226396 </i>
   </energy>
  </scstep>
  <scstep>
   <time name="dav">   56.55   56.68</time>
   <time name="total">   60.60   60.75</time>
   <energy>
    <i name="e_fr_energy">   -558.05226717 </i>
    <i name="e_wo_entrp">   -558.05226717 </i>
    <i name="e_0_energy">   -558.05226717 </i>
   </energy>
  </scstep>
  <scstep>
   <time name="dav">   54.46   54.60</time>
   <time name="total">   58.53   58.68</time>
   <energy>
    <i name="e_fr_energy">   -558.05226903 </i>
    <i name="e_wo_entrp">   -558.05226903 </i>
    <i name="e_0_energy">   -558.05226903 </i>
   </energy>
  </scstep>
  <scstep>
   <time name="dav">   54.06   54.19</time>
   <time name="total">   58.13   58.27</time>
   <energy>
    <i name="e_fr_energy">   -558.05226948 </i>
    <i name="e_wo_entrp">   -558.05226948 </i>
    <i name="e_0_energy">   -558.05226948 </i>
   </energy>
  </scstep>
  <scstep>
   <time name="dav">   52.93   53.10</time>
   <time name="total">   57.01   57.19</time>
   <energy>
    <i name="e_fr_energy">   -558.05226986 </i>
    <i name="e_wo_entrp">   -558.05226986 </i>
    <i name="e_0_energy">   -558.05226986 </i>
   </energy>
  </scstep>
  <scstep>
   <time name="dav">   53.03   53.16</time>
   <time name="total">   57.11   57.24</time>
   <energy>
    <i name="e_fr_energy">   -558.05226999 </i>
    <i name="e_wo_entrp">   -558.05226999 </i>
    <i name="e_0_energy">   -558.05226999 </i>
   </energy>
  </scstep>
  <scstep>
   <time name="dav">   52.42   52.54</time>
   <time name="total">   52.77   52.90</time>
   <energy>
    <i name="alphaZ">     78.94499058 </i>
    <i name="ewald"> 218675.81002325 </i>
    <i name="hartreedc">-226215.28418534 </i>
    <i name="XCdc">    861.58136077 </i>
    <i name="pawpsdc">  27686.81787568 </i>
    <i name="pawaedc"> -27729.61055189 </i>
    <i name="eentropy">      0.00000000 </i>
    <i name="bandstr">  -3039.90882641 </i>
    <i name="atom">   9123.59704331 </i>
    <i name="e_fr_energy">   -558.05227006 </i>
    <i name="e_wo_entrp">   -558.05227006 </i>
    <i name="e_0_energy">   -558.05227006 </i>
   </energy>
  </scstep>
  <structure>
   <crystal>
    <varray name="basis" >
     <v>       9.76049979       0.23267363       0.00053609 </v>
     <v>       5.08835596       8.32791842       0.00056564 </v>
     <v>       0.00272217       0.00174260      49.93586663 </v>
    </varray>
    <i name="volume">   3999.89884097 </i>
    <varray name="rec_basis" >
     <v>       0.10396808      -0.06352447      -0.00000345 </v>
     <v>      -0.00290476       0.12185284      -0.00000409 </v>
     <v>      -0.00000108      -0.00000070       0.02002569 </v>
    </varray>
   </crystal>
   <varray name="positions" >
    <v>       0.99663011       0.99651914       0.38388378 </v>
    <v>       0.07805185       0.07793238       0.38312524 </v>
    <v>       0.08183847       0.08191676       0.45365740 </v>
    <v>       0.16367083       0.16375792       0.45070770 </v>
    <v>       0.00216360       0.24438841       0.38355495 </v>
    <v>       0.09647640       0.31236789       0.38490391 </v>
    <v>       0.08070532       0.33209765       0.45044025 </v>
    <v>       0.16227601       0.41323421       0.44544057 </v>
    <v>       0.01517352       0.48287877       0.38662042 </v>
    <v>       0.09079383       0.57635322       0.38906727 </v>
    <v>       0.09018545       0.57586596       0.45092866 </v>
    <v>       0.18356692       0.65157993       0.45337076 </v>
    <v>       0.00139972       0.74457456       0.38588521 </v>
    <v>       0.08263350       0.82933285       0.38499094 </v>
    <v>       0.08987218       0.82590641       0.45433428 </v>
    <v>       0.16850742       0.91296088       0.45471261 </v>
    <v>       0.24453813       0.00198972       0.38356111 </v>
    <v>       0.31253849       0.09625988       0.38490896 </v>
    <v>       0.33204599       0.08070847       0.45042244 </v>
    <v>       0.41316063       0.16227518       0.44542701 </v>
    <v>       0.34969118       0.34965020       0.40727472 </v>
    <v>       0.31691473       0.31691505       0.43272588 </v>
    <v>       0.25344023       0.50429820       0.39457204 </v>
    <v>       0.33456043       0.58584632       0.38957837 </v>
    <v>       0.35406329       0.57030475       0.45509402 </v>
    <v>       0.42206689       0.66457931       0.45644100 </v>
    <v>       0.24922923       0.75027333       0.38544741 </v>
    <v>       0.33178537       0.83456396       0.38438042 </v>
    <v>       0.33482164       0.83199563       0.45562126 </v>
    <v>       0.41737874       0.91629180       0.45455156 </v>
    <v>       0.48303476       0.01499089       0.38662941 </v>
    <v>       0.57642296       0.09069858       0.38906997 </v>
    <v>       0.57581937       0.09021051       0.45093178 </v>
    <v>       0.65143638       0.18368213       0.45338023 </v>
    <v>       0.50433736       0.25332936       0.39455866 </v>
    <v>       0.58589715       0.33446306       0.38956111 </v>
    <v>       0.57013032       0.35418938       0.45509912 </v>
    <v>       0.66445065       0.42217268       0.45644733 </v>
    <v>       0.50293021       0.50280099       0.38929502 </v>
    <v>       0.58477488       0.58465926       0.38634613 </v>
    <v>       0.58854890       0.58863102       0.45687558 </v>
    <v>       0.66996533       0.67003879       0.45611391 </v>
    <v>       0.49809814       0.75360561       0.38528948 </v>
    <v>       0.57673490       0.84064940       0.38566510 </v>
    <v>       0.58397144       0.83725292       0.45500546 </v>
    <v>       0.66519875       0.92197297       0.45411101 </v>
    <v>       0.74467617       0.00128842       0.38588496 </v>
    <v>       0.82941773       0.08253962       0.38498287 </v>
    <v>       0.82577710       0.08998780       0.45434365 </v>
    <v>       0.91283124       0.16863595       0.45472381 </v>
    <v>       0.75037283       0.24910546       0.38543148 </v>
    <v>       0.83468847       0.33167235       0.38436791 </v>
    <v>       0.83191450       0.33489417       0.45563441 </v>
    <v>       0.91622550       0.41746849       0.45456878 </v>
    <v>       0.75377846       0.49792112       0.38527877 </v>
    <v>       0.84082444       0.57657886       0.38565618 </v>
    <v>       0.83721740       0.58401578       0.45501425 </v>
    <v>       0.92190950       0.66527250       0.45411153 </v>
    <v>       0.74954751       0.74939688       0.38583243 </v>
    <v>       0.83194160       0.83183962       0.38529957 </v>
    <v>       0.83467173       0.83472983       0.45469557 </v>
    <v>       0.91705381       0.91716383       0.45416437 </v>
   </varray>
  </structure>
  <varray name="forces" >
   <v>       0.75610974       0.45640164      -0.15033343 </v>
   <v>      -0.52390851      -0.32133605      -0.05385445 </v>
   <v>       0.58063716       0.36404973      -0.16125067 </v>
   <v>      -0.65437705      -0.39828239      -0.14489833 </v>
   <v>       0.47384297       0.47637240      -0.05870601 </v>
   <v>       0.75328414      -2.05250083      -0.02873894 </v>
   <v>       0.77799988       0.12752767      -0.21454989 </v>
   <v>      -0.48266927      -0.43875449      -0.04005878 </v>
   <v>       0.93856699      -0.07262490       0.14246599 </v>
   <v>      -0.57967946      -0.79617751      -0.15448669 </v>
   <v>       0.95815130       0.14556505       0.16700502 </v>
   <v>      -0.39684087      -0.86794298      -0.14005753 </v>
   <v>       0.64948679       0.53331599      -0.28701331 </v>
   <v>      -0.79799521      -0.47530118      -0.04247300 </v>
   <v>       0.47863014       0.38108066       0.01317376 </v>
   <v>      -0.85521594      -0.19043847      -0.06420038 </v>
   <v>       0.62848486       0.20580910      -0.05924257 </v>
   <v>      -1.38517470       1.69442773      -0.02814799 </v>
   <v>       0.48104466       0.65673465      -0.21423327 </v>
   <v>      -0.58024308      -0.21428120      -0.01842090 </v>
   <v>      -0.18253767      -0.12041987       1.17262805 </v>
   <v>       0.18391329       0.12135038      -1.17528477 </v>
   <v>       0.58175149       0.20734264       0.02181890 </v>
   <v>      -0.47918815      -0.64933882       0.21268457 </v>
   <v>       1.38806616      -1.69308421       0.02798131 </v>
   <v>      -0.63359925      -0.21064355       0.05907201 </v>
   <v>       0.77182050       0.57673917      -0.15537004 </v>
   <v>      -0.83907578      -0.45123846      -0.01086827 </v>
   <v>       0.84013136       0.45528879       0.01047772 </v>
   <v>      -0.77331857      -0.57810005       0.15610691 </v>
   <v>       0.39585528       0.86445544       0.13979967 </v>
   <v>      -0.96371836      -0.14400244      -0.16660929 </v>
   <v>       0.57259904       0.79378469       0.15351548 </v>
   <v>      -0.93955648       0.07253504      -0.14257257 </v>
   <v>       0.47691215       0.43864176       0.04264391 </v>
   <v>      -0.77484967      -0.12582561       0.21369909 </v>
   <v>      -0.74963277       2.05572213       0.02874073 </v>
   <v>      -0.48184595      -0.47657745       0.05863236 </v>
   <v>       0.66210780       0.40283571       0.14431589 </v>
   <v>      -0.59084071      -0.37246082       0.16148342 </v>
   <v>       0.52748263       0.32114686       0.05379076 </v>
   <v>      -0.74108805      -0.45118578       0.14944640 </v>
   <v>       0.85471198       0.19012161       0.06417976 </v>
   <v>      -0.47650941      -0.37453098      -0.01289523 </v>
   <v>       0.78783357       0.45525921       0.04362014 </v>
   <v>      -0.63380302      -0.52115346       0.28633243 </v>
   <v>       0.77085357       0.31901159      -0.28575038 </v>
   <v>      -0.79458005      -0.48653502      -0.04267030 </v>
   <v>       0.56580303       0.23356693       0.01135239 </v>
   <v>      -0.57278361      -0.69314338      -0.06747332 </v>
   <v>       0.86861858       0.41949940      -0.14959410 </v>
   <v>      -0.79536277      -0.55148287      -0.01249728 </v>
   <v>       0.79762344       0.54819213       0.01219699 </v>
   <v>      -0.86450996      -0.42835764       0.14919796 </v>
   <v>       0.57404118       0.69833523       0.06753404 </v>
   <v>      -0.56295449      -0.23613706      -0.01120003 </v>
   <v>       0.76818421       0.49579520       0.04413960 </v>
   <v>      -0.75055412      -0.31573563       0.28472394 </v>
   <v>       0.35522135       0.20953091       0.01982350 </v>
   <v>      -0.54787480      -0.32850686      -0.16170820 </v>
   <v>       0.53558276       0.32328369       0.16194616 </v>
   <v>      -0.35106426      -0.20762316      -0.01936891 </v>
  </varray>
  <varray name="stress" >
   <v>      17.49197402     -15.43001263      -0.31457939 </v>
   <v>     -15.43001268      36.18485746      -0.20600498 </v>
   <v>      -0.31457938      -0.20600498       0.27076866 </v>
  </varray>
  <energy>
   <i name="e_fr_energy">   -565.24748650 </i>
   <i name="e_wo_entrp">   -565.24748650 </i>
   <i name="e_0_energy">      0.00000000 </i>
  </energy>
  <time name="totalsc"> 1855.83 1860.68</time>
 </calculation>
 <calculation>
  <scstep>
   <time name="dav">   69.65   69.82</time>
   <time name="total">   73.71   73.88</time>
   <energy>
    <i name="alphaZ">     76.43044972 </i>
    <i name="ewald"> 211512.47471740 </i>
    <i name="hartreedc">-219085.90334488 </i>
    <i name="XCdc">    852.44218558 </i>
    <i name="pawpsdc">  27686.81739866 </i>
    <i name="pawaedc"> -27729.61007468 </i>
    <i name="eentropy">      0.00000000 </i>
    <i name="bandstr">  -2996.54096574 </i>
    <i name="atom">   9123.59704331 </i>
    <i name="e_fr_energy">   -560.29259063 </i>
    <i name="e_wo_entrp">   -560.29259063 </i>
    <i name="e_0_energy">   -560.29259063 </i>
   </energy>
  </scstep>
  <scstep>
   <time name="dav">   74.71   74.90</time>
   <time name="total">   78.77   79.06</time>
   <energy>
    <i name="e_fr_energy">   -560.11301216 </i>
    <i name="e_wo_entrp">   -560.11301216 </i>
    <i name="e_0_energy">   -560.11301216 </i>
   </energy>
  </scstep>
  <scstep>
   <time name="dav">   74.43   74.61</time>
   <time name="total">   78.45   78.65</time>
   <energy>
    <i name="e_fr_energy">   -559.91526577 </i>
    <i name="e_wo_entrp">   -559.91526577 </i>
    <i name="e_0_energy">   -559.91526577 </i>
   </energy>
  </scstep>
  <scstep>
   <time name="dav">   77.93   78.12</time>
   <time name="total">   81.99   82.20</time>
   <energy>
    <i name="e_fr_energy">   -559.90778742 </i>
    <i name="e_wo_entrp">   -559.90778742 </i>
    <i name="e_0_energy">   -559.90778742 </i>
   </energy>
  </scstep>
  <scstep>
   <time name="dav">   73.61   73.78</time>
   <time name="total">   77.66   77.85</time>
   <energy>
    <i name="e_fr_energy">   -559.90776751 </i>
    <i name="e_wo_entrp">   -559.90776751 </i>
    <i name="e_0_energy">   -559.90776751 </i>
   </energy>
  </scstep>
  <scstep>
   <time name="dav">   75.64   75.82</time>
   <time name="total">   79.69   79.89</time>
   <energy>
    <i name="e_fr_energy">   -559.90800831 </i>
    <i name="e_wo_entrp">   -559.90800831 </i>
    <i name="e_0_energy">   -559.90800831 </i>
   </energy>
  </scstep>
  <scstep>
   <time name="dav">   73.57   73.75</time>
   <time name="total">   77.62   77.87</time>
   <energy>
    <i name="e_fr_energy">   -559.90837166 </i>
    <i name="e_wo_entrp">   -559.90837166 </i>
    <i name="e_0_energy">   -559.90837166 </i>
   </energy>
  </scstep>
  <scstep>
   <time name="dav">   76.52   76.71</time>
   <time name="total">   80.57   80.79</time>
   <energy>
    <i name="e_fr_energy">   -559.90862803 </i>
    <i name="e_wo_entrp">   -559.90862803 </i>
    <i name="e_0_energy">   -559.90862803 </i>
   </energy>
  </scstep>
  <scstep>
   <time name="dav">   72.18   72.36</time>
   <time name="total">   76.23   76.43</time>
   <energy>
    <i name="e_fr_energy">   -559.90895404 </i>
    <i name="e_wo_entrp">   -559.90895404 </i>
    <i name="e_0_energy">   -559.90895404 </i>
   </energy>
  </scstep>
  <scstep>
   <time name="dav">   76.04   76.22</time>
   <time name="total">   80.10   80.30</time>
   <energy>
    <i name="e_fr_energy">   -559.90916518 </i>
    <i name="e_wo_entrp">   -559.90916518 </i>
    <i name="e_0_energy">   -559.90916518 </i>
   </energy>
  </scstep>
  <scstep>
   <time name="dav">   73.14   73.31</time>
   <time name="total">   77.21   77.40</time>
   <energy>
    <i name="e_fr_energy">   -559.90934646 </i>
    <i name="e_wo_entrp">   -559.90934646 </i>
    <i name="e_0_energy">   -559.90934646 </i>
   </energy>
  </scstep>
  <scstep>
   <time name="dav">   71.92   72.09</time>
   <time name="total">   76.00   76.19</time>
   <energy>
    <i name="e_fr_energy">   -559.90937259 </i>
    <i name="e_wo_entrp">   -559.90937259 </i>
    <i name="e_0_energy">   -559.90937259 </i>
   </energy>
  </scstep>
  <scstep>
   <time name="dav">   65.41   65.56</time>
   <time name="total">   69.45   69.62</time>
   <energy>
    <i name="e_fr_energy">   -559.90939362 </i>
    <i name="e_wo_entrp">   -559.90939362 </i>
    <i name="e_0_energy">   -559.90939362 </i>
   </energy>
  </scstep>
  <scstep>
   <time name="dav">   64.96   65.12</time>
   <time name="total">   68.98   69.16</time>
   <energy>
    <i name="e_fr_energy">   -559.90940388 </i>
    <i name="e_wo_entrp">   -559.90940388 </i>
    <i name="e_0_energy">   -559.90940388 </i>
   </energy>
  </scstep>
  <scstep>
   <time name="dav">   64.40   64.56</time>
   <time name="total">   68.44   68.61</time>
   <energy>
    <i name="e_fr_energy">   -559.90941007 </i>
    <i name="e_wo_entrp">   -559.90941007 </i>
    <i name="e_0_energy">   -559.90941007 </i>
   </energy>
  </scstep>
  <scstep>
   <time name="dav">   55.48   55.61</time>
   <time name="total">   59.54   59.69</time>
   <energy>
    <i name="e_fr_energy">   -559.90941238 </i>
    <i name="e_wo_entrp">   -559.90941238 </i>
    <i name="e_0_energy">   -559.90941238 </i>
   </energy>
  </scstep>
  <scstep>
   <time name="dav">   51.20   51.33</time>
   <time name="total">   55.25   55.38</time>
   <energy>
    <i name="e_fr_energy">   -559.90941397 </i>
    <i name="e_wo_entrp">   -559.90941397 </i>
    <i name="e_0_energy">   -559.90941397 </i>
   </energy>
  </scstep>
  <scstep>
   <time name="dav">   51.58   51.70</time>
   <time name="total">   55.63   55.77</time>
   <energy>
    <i name="e_fr_energy">   -559.90941495 </i>
    <i name="e_wo_entrp">   -559.90941495 </i>
    <i name="e_0_energy">   -559.90941495 </i>
   </energy>
  </scstep>
  <scstep>
   <time name="dav">   51.08   51.20</time>
   <time name="total">   55.13   55.26</time>
   <energy>
    <i name="e_fr_energy">   -559.90941546 </i>
    <i name="e_wo_entrp">   -559.90941546 </i>
    <i name="e_0_energy">   -559.90941546 </i>
   </energy>
  </scstep>
  <scstep>
   <time name="dav">   50.86   50.98</time>
   <time name="total">   54.88   55.02</time>
   <energy>
    <i name="e_fr_energy">   -559.90941572 </i>
    <i name="e_wo_entrp">   -559.90941572 </i>
    <i name="e_0_energy">   -559.90941572 </i>
   </energy>
  </scstep>
  <scstep>
   <time name="dav">   51.16   51.28</time>
   <time name="total">   55.18   55.32</time>
   <energy>
    <i name="e_fr_energy">   -559.90941587 </i>
    <i name="e_wo_entrp">   -559.90941587 </i>
    <i name="e_0_energy">   -559.90941587 </i>
   </energy>
  </scstep>
  <scstep>
   <time name="dav">   51.57   51.69</time>
   <time name="total">   51.92   52.05</time>
   <energy>
    <i name="alphaZ">     76.43044972 </i>
    <i name="ewald"> 211512.47471740 </i>
    <i name="hartreedc">-219050.22389148 </i>
    <i name="XCdc">    852.43690865 </i>
    <i name="pawpsdc">  25651.97843686 </i>
    <i name="pawaedc"> -25693.98907516 </i>
    <i name="eentropy">      0.00000000 </i>
    <i name="bandstr">  -3032.61400524 </i>
    <i name="atom">   9123.59704331 </i>
    <i name="e_fr_energy">   -559.90941594 </i>
    <i name="e_wo_entrp">   -559.90941594 </i>
    <i name="e_0_energy">   -559.90941594 </i>
   </energy>
  </scstep>
  <structure>
   <crystal>
    <varray name="basis" >
     <v>       9.86196218       0.14635994      -0.00135684 </v>
     <v>       5.06438072       8.46318800      -0.00144742 </v>
     <v>      -0.00680128      -0.00448937      49.94407385 </v>
    </varray>
    <i name="volume">   4131.49441706 </i>
    <varray name="rec_basis" >
     <v>       0.10230828      -0.06122138       0.00000843 </v>
     <v>      -0.00176929       0.11921753       0.00001048 </v>
     <v>       0.00000273       0.00000179       0.02002240 </v>
    </varray>
   </crystal>
   <varray name="positions" >
    <v>       0.99737815       0.99732446       0.38383838 </v>
    <v>       0.07753842       0.07736503       0.38310899 </v>
    <v>       0.08239993       0.08256011       0.45360870 </v>
    <v>       0.16302660       0.16305493       0.45066397 </v>
    <v>       0.00245010       0.24524277       0.38353721 </v>
    <v>       0.09962273       0.30856442       0.38489525 </v>
    <v>       0.08180263       0.33229787       0.45037547 </v>
    <v>       0.16193967       0.41244935       0.44542849 </v>
    <v>       0.01671417       0.48270424       0.38666341 </v>
    <v>       0.09064773       0.57491602       0.38902064 </v>
    <v>       0.09154784       0.57609140       0.45097906 </v>
    <v>       0.18377613       0.65000289       0.45332849 </v>
    <v>       0.00190699       0.74552584       0.38579854 </v>
    <v>       0.08183791       0.82849466       0.38497814 </v>
    <v>       0.09025743       0.82658550       0.45433824 </v>
    <v>       0.16734934       0.91264850       0.45469325 </v>
    <v>       0.24532612       0.00234028       0.38354321 </v>
    <v>       0.30874467       0.09943323       0.38490047 </v>
    <v>       0.33217105       0.08189385       0.45035775 </v>
    <v>       0.41245637       0.16190695       0.44542146 </v>
    <v>       0.34952034       0.34943691       0.40762874 </v>
    <v>       0.31708684       0.31712999       0.43237106 </v>
    <v>       0.25415349       0.50465362       0.39457861 </v>
    <v>       0.33443120       0.58467444       0.38964260 </v>
    <v>       0.35786036       0.56713373       0.45510246 </v>
    <v>       0.42127551       0.66422009       0.45645885 </v>
    <v>       0.24988665       0.75129902       0.38540048 </v>
    <v>       0.33090235       0.83377177       0.38437716 </v>
    <v>       0.33570244       0.83279521       0.45562440 </v>
    <v>       0.41672027       0.91526368       0.45459870 </v>
    <v>       0.48282734       0.01656157       0.38667160 </v>
    <v>       0.57505035       0.09047625       0.38901968 </v>
    <v>       0.57595666       0.09164362       0.45097811 </v>
    <v>       0.64989427       0.18385653       0.45333720 </v>
    <v>       0.50466479       0.25411427       0.39457152 </v>
    <v>       0.58480315       0.33426583       0.38962564 </v>
    <v>       0.56698664       0.35799861       0.45510779 </v>
    <v>       0.66415181       0.42131829       0.45646504 </v>
[...]
       <r>  -12.7623    1.0000 </r>
       <r>  -12.7440    1.0000 </r>
       <r>  -12.5482    1.0000 </r>
       <r>  -12.4854    1.0000 </r>
       <r>  -12.3230    1.0000 </r>
       <r>  -12.1581    1.0000 </r>
       <r>  -11.9978    1.0000 </r>
       <r>  -11.7554    1.0000 </r>
       <r>  -11.6098    1.0000 </r>
       <r>  -11.4056    1.0000 </r>
       <r>  -11.3019    1.0000 </r>
       <r>  -11.0533    1.0000 </r>
       <r>  -10.9730    1.0000 </r>
       <r>  -10.8587    1.0000 </r>
       <r>  -10.8273    1.0000 </r>
       <r>  -10.7502    1.0000 </r>
       <r>  -10.5005    1.0000 </r>
       <r>  -10.4134    1.0000 </r>
       <r>  -10.3477    1.0000 </r>
       <r>  -10.1704    1.0000 </r>
       <r>  -10.1536    1.0000 </r>
       <r>  -10.1235    1.0000 </r>
       <r>  -10.0301    1.0000 </r>
       <r>   -9.9971    1.0000 </r>
       <r>   -9.9248    1.0000 </r>
       <r>   -9.8815    1.0000 </r>
       <r>   -9.8215    1.0000 </r>
       <r>   -9.7014    1.0000 </r>
       <r>   -9.5600    1.0000 </r>
       <r>   -9.5176    1.0000 </r>
       <r>   -9.4843    1.0000 </r>
       <r>   -9.4157    1.0000 </r>
       <r>   -9.3945    1.0000 </r>
       <r>   -9.2896    1.0000 </r>
       <r>   -9.1600    1.0000 </r>
       <r>   -9.1523    1.0000 </r>
       <r>   -8.8233    1.0000 </r>
       <r>   -8.7823    1.0000 </r>
       <r>   -8.7616    1.0000 </r>
       <r>   -8.7089    1.0000 </r>
       <r>   -8.6761    1.0000 </r>
       <r>   -8.5990    1.0000 </r>
       <r>   -8.5371    1.0000 </r>
       <r>   -8.3983    1.0000 </r>
       <r>   -8.1845    1.0000 </r>
       <r>   -8.1831    1.0000 </r>
       <r>   -8.1205    1.0000 </r>
       <r>   -7.9852    1.0000 </r>
       <r>   -7.9541    1.0000 </r>
       <r>   -7.9063    1.0000 </r>
       <r>   -7.8225    1.0000 </r>
       <r>   -7.6063    1.0000 </r>
       <r>   -7.4496    1.0000 </r>
       <r>   -7.4045    1.0000 </r>
       <r>   -7.3711    1.0000 </r>
       <r>   -7.2428    1.0000 </r>
       <r>   -7.2041    1.0000 </r>
       <r>   -7.2020    1.0000 </r>
       <r>   -6.9532    1.0000 </r>
       <r>   -6.8674    1.0000 </r>
       <r>   -6.7777    1.0000 </r>
       <r>   -6.6001    1.0000 </r>
       <r>   -6.4759    1.0000 </r>
       <r>   -6.4615    1.0000 </r>
       <r>   -6.0897    1.0000 </r>
       <r>   -5.8050    1.0000 </r>
       <r>   -5.6468    1.0000 </r>
       <r>   -5.5086    1.0000 </r>
       <r>   -5.4086    1.0000 </r>
       <r>   -5.3396    1.0000 </r>
       <r>   -5.0953    1.0000 </r>
       <r>   -4.9624    1.0000 </r>
       <r>   -4.4167    1.0000 </r>
       <r>   -4.0872    1.0000 </r>
       <r>   -4.0362    1.0000 </r>
       <r>   -3.8211    1.0000 </r>
       <r>   -3.2091    0.0000 </r>
       <r>   -3.0870    0.0000 </r>
       <r>   -2.0506    0.0000 </r>
       <r>   -1.8197    0.0000 </r>
       <r>   -1.1275    0.0000 </r>
       <r>   -1.0162    0.0000 </r>
       <r>   -0.9953    0.0000 </r>
       <r>   -0.7356    0.0000 </r>
       <r>   -0.6414    0.0000 </r>
       <r>   -0.6250    0.0000 </r>
       <r>   -0.4902    0.0000 </r>
       <r>   -0.4195    0.0000 </r>
       <r>   -0.2505    0.0000 </r>
       <r>    0.2610    0.0000 </r>
       <r>    0.5576    0.0000 </r>
       <r>    0.6625    0.0000 </r>
       <r>    0.6722    0.0000 </r>
       <r>    0.7051    0.0000 </r>
       <r>    0.8564    0.0000 </r>
       <r>    1.0093    0.0000 </r>
       <r>    1.0502    0.0000 </r>
       <r>    1.0922    0.0000 </r>
       <r>    1.4231    0.0000 </r>
       <r>    1.4637    0.0000 </r>
       <r>    1.5354    0.0000 </r>
       <r>    1.6139    0.0000 </r>
       <r>    1.6480    0.0000 </r>
       <r>    1.7244    0.0000 </r>
       <r>    1.7890    0.0000 </r>
       <r>    1.8568    0.0000 </r>
       <r>    1.9283    0.0000 </r>
       <r>    1.9424    0.0000 </r>
      </set>
      <set comment="kpoint 12">
       <r>  -22.5385    1.0000 </r>
       <r>  -22.5086    1.0000 </r>
       <r>  -22.0993    1.0000 </r>
       <r>  -22.0655    1.0000 </r>
       <r>  -21.9683    1.0000 </r>
       <r>  -21.7820    1.0000 </r>
       <r>  -21.1560    1.0000 </r>
       <r>  -20.9526    1.0000 </r>
       <r>  -20.8498    1.0000 </r>
       <r>  -20.5948    1.0000 </r>
       <r>  -20.1936    1.0000 </r>
       <r>  -20.1536    1.0000 </r>
       <r>  -19.9752    1.0000 </r>
       <r>  -19.6981    1.0000 </r>
       <r>  -19.6160    1.0000 </r>
       <r>  -19.5070    1.0000 </r>
       <r>  -19.4183    1.0000 </r>
       <r>  -19.2940    1.0000 </r>
       <r>  -18.9492    1.0000 </r>
       <r>  -18.8767    1.0000 </r>
       <r>  -18.8112    1.0000 </r>
       <r>  -18.7794    1.0000 </r>
       <r>  -18.4663    1.0000 </r>
       <r>  -17.9786    1.0000 </r>
       <r>  -17.4045    1.0000 </r>
       <r>  -17.1713    1.0000 </r>
       <r>  -17.0753    1.0000 </r>
       <r>  -16.7992    1.0000 </r>
       <r>  -16.7067    1.0000 </r>
       <r>  -16.5617    1.0000 </r>
       <r>  -16.0978    1.0000 </r>
       <r>  -15.9845    1.0000 </r>
       <r>  -15.8869    1.0000 </r>
       <r>  -15.6538    1.0000 </r>
       <r>  -15.6233    1.0000 </r>
       <r>  -15.5939    1.0000 </r>
       <r>  -15.5109    1.0000 </r>
       <r>  -15.5061    1.0000 </r>
       <r>  -15.0123    1.0000 </r>
       <r>  -14.6590    1.0000 </r>
       <r>  -14.4249    1.0000 </r>
       <r>  -14.1782    1.0000 </r>
       <r>  -14.1163    1.0000 </r>
       <r>  -14.0313    1.0000 </r>
       <r>  -13.9018    1.0000 </r>
       <r>  -13.5896    1.0000 </r>
       <r>  -13.5043    1.0000 </r>
       <r>  -13.3672    1.0000 </r>
       <r>  -13.2307    1.0000 </r>
       <r>  -13.0389    1.0000 </r>
       <r>  -12.9714    1.0000 </r>
       <r>  -12.7745    1.0000 </r>
       <r>  -12.3703    1.0000 </r>
       <r>  -11.9293    1.0000 </r>
       <r>  -11.8409    1.0000 </r>
       <r>  -11.5690    1.0000 </r>
       <r>  -11.3957    1.0000 </r>
       <r>  -11.1200    1.0000 </r>
       <r>  -11.0145    1.0000 </r>
       <r>  -10.9552    1.0000 </r>
       <r>  -10.9334    1.0000 </r>
       <r>  -10.8632    1.0000 </r>
       <r>  -10.8222    1.0000 </r>
       <r>  -10.8134    1.0000 </r>
       <r>  -10.5407    1.0000 </r>
       <r>  -10.3460    1.0000 </r>
       <r>  -10.2809    1.0000 </r>
       <r>  -10.1387    1.0000 </r>
       <r>  -10.0940    1.0000 </r>
       <r>  -10.0406    1.0000 </r>
       <r>   -9.9351    1.0000 </r>
       <r>   -9.8676    1.0000 </r>
       <r>   -9.8319    1.0000 </r>
       <r>   -9.8172    1.0000 </r>
       <r>   -9.8037    1.0000 </r>
       <r>   -9.7333    1.0000 </r>
       <r>   -9.6954    1.0000 </r>
       <r>   -9.6382    1.0000 </r>
       <r>   -9.5529    1.0000 </r>
       <r>   -9.4604    1.0000 </r>
       <r>   -9.3434    1.0000 </r>
       <r>   -9.2925    1.0000 </r>
       <r>   -9.2010    1.0000 </r>
       <r>   -9.1108    1.0000 </r>
       <r>   -9.0509    1.0000 </r>
       <r>   -9.0306    1.0000 </r>
       <r>   -8.9805    1.0000 </r>
       <r>   -8.8943    1.0000 </r>
       <r>   -8.6436    1.0000 </r>
       <r>   -8.4412    1.0000 </r>
       <r>   -8.3861    1.0000 </r>
       <r>   -8.3717    1.0000 </r>
       <r>   -8.2726    1.0000 </r>
       <r>   -8.0842    1.0000 </r>
       <r>   -8.0308    1.0000 </r>
       <r>   -7.7755    1.0000 </r>
       <r>   -7.7101    1.0000 </r>
       <r>   -7.6840    1.0000 </r>
       <r>   -7.5860    1.0000 </r>
       <r>   -7.5238    1.0000 </r>
       <r>   -7.5037    1.0000 </r>
       <r>   -7.4669    1.0000 </r>
       <r>   -7.4431    1.0000 </r>
       <r>   -7.4173    1.0000 </r>
       <r>   -7.2212    1.0000 </r>
       <r>   -7.1156    1.0000 </r>
       <r>   -7.0086    1.0000 </r>
       <r>   -6.7679    1.0000 </r>
       <r>   -6.7665    1.0000 </r>
       <r>   -6.6991    1.0000 </r>
       <r>   -6.6942    1.0000 </r>
       <r>   -6.5157    1.0000 </r>
       <r>   -6.2539    1.0000 </r>
       <r>   -6.2253    1.0000 </r>
       <r>   -5.9530    1.0000 </r>
       <r>   -5.6642    1.0000 </r>
       <r>   -5.5268    1.0000 </r>
       <r>   -5.0538    1.0000 </r>
       <r>   -4.9995    1.0000 </r>
       <r>   -4.7383    1.0000 </r>
       <r>   -4.4806    1.0000 </r>
       <r>   -4.1078    1.0000 </r>
       <r>   -3.7957    1.0000 </r>
       <r>   -3.4090    1.0000 </r>
       <r>   -3.3029    0.0000 </r>
       <r>   -2.9633    0.0000 </r>
       <r>   -2.1790    0.0000 </r>
       <r>   -2.1224    0.0000 </r>
       <r>   -1.4216    0.0000 </r>
       <r>   -1.1904    0.0000 </r>
       <r>   -1.1239    0.0000 </r>
       <r>   -1.0005    0.0000 </r>
       <r>   -0.7617    0.0000 </r>
       <r>   -0.5292    0.0000 </r>
       <r>   -0.2291    0.0000 </r>
       <r>    0.1601    0.0000 </r>
       <r>    0.3361    0.0000 </r>
       <r>    0.3950    0.0000 </r>
       <r>    0.5331    0.0000 </r>
       <r>    0.5362    0.0000 </r>
       <r>    0.5629    0.0000 </r>
       <r>    0.8498    0.0000 </r>
       <r>    0.8696    0.0000 </r>
       <r>    0.8957    0.0000 </r>
       <r>    0.9558    0.0000 </r>
       <r>    1.2126    0.0000 </r>
       <r>    1.2651    0.0000 </r>
       <r>    1.2660    0.0000 </r>
       <r>    1.2858    0.0000 </r>
       <r>    1.3954    0.0000 </r>
       <r>    1.7223    0.0000 </r>
       <r>    1.7844    0.0000 </r>
       <r>    1.7848    0.0000 </r>
       <r>    1.8625    0.0000 </r>
       <r>    1.8634    0.0000 </r>
       <r>    1.9256    0.0000 </r>
      </set>
      <set comment="kpoint 13">
       <r>  -22.4713    1.0000 </r>
       <r>  -22.3886    1.0000 </r>
       <r>  -22.3279    1.0000 </r>
       <r>  -22.1826    1.0000 </r>
       <r>  -21.9312    1.0000 </r>
       <r>  -21.7060    1.0000 </r>
       <r>  -21.2298    1.0000 </r>
       <r>  -20.9762    1.0000 </r>
       <r>  -20.5668    1.0000 </r>
       <r>  -20.4787    1.0000 </r>
       <r>  -20.3817    1.0000 </r>
       <r>  -20.2524    1.0000 </r>
       <r>  -19.7812    1.0000 </r>
       <r>  -19.6911    1.0000 </r>
       <r>  -19.5921    1.0000 </r>
       <r>  -19.4994    1.0000 </r>
       <r>  -19.4531    1.0000 </r>
       <r>  -19.2476    1.0000 </r>
       <r>  -19.1847    1.0000 </r>
       <r>  -18.9594    1.0000 </r>
       <r>  -18.8075    1.0000 </r>
       <r>  -18.7284    1.0000 </r>
       <r>  -18.4311    1.0000 </r>
       <r>  -18.0803    1.0000 </r>
       <r>  -17.4341    1.0000 </r>
       <r>  -17.2817    1.0000 </r>
       <r>  -17.0521    1.0000 </r>
       <r>  -16.8291    1.0000 </r>
       <r>  -16.6607    1.0000 </r>
       <r>  -16.4278    1.0000 </r>
       <r>  -16.1197    1.0000 </r>
       <r>  -15.8503    1.0000 </r>
       <r>  -15.8028    1.0000 </r>
       <r>  -15.7111    1.0000 </r>
       <r>  -15.7048    1.0000 </r>
       <r>  -15.5899    1.0000 </r>
       <r>  -15.3736    1.0000 </r>
       <r>  -15.3389    1.0000 </r>
       <r>  -15.0492    1.0000 </r>
       <r>  -14.8127    1.0000 </r>
       <r>  -14.3704    1.0000 </r>
       <r>  -14.3114    1.0000 </r>
       <r>  -14.2154    1.0000 </r>
       <r>  -13.8203    1.0000 </r>
       <r>  -13.7353    1.0000 </r>
       <r>  -13.6096    1.0000 </r>
       <r>  -13.5423    1.0000 </r>
       <r>  -13.3167    1.0000 </r>
       <r>  -13.2788    1.0000 </r>
       <r>  -13.0757    1.0000 </r>
       <r>  -12.9943    1.0000 </r>
       <r>  -12.8553    1.0000 </r>
       <r>  -12.4418    1.0000 </r>
       <r>  -11.9558    1.0000 </r>
       <r>  -11.7792    1.0000 </r>
       <r>  -11.7450    1.0000 </r>
       <r>  -11.4624    1.0000 </r>
       <r>  -11.2445    1.0000 </r>
       <r>  -11.1403    1.0000 </r>
       <r>  -11.0015    1.0000 </r>
       <r>  -10.9037    1.0000 </r>
       <r>  -10.8115    1.0000 </r>
       <r>  -10.7231    1.0000 </r>
       <r>  -10.6369    1.0000 </r>
       <r>  -10.6124    1.0000 </r>
       <r>  -10.4591    1.0000 </r>
       <r>  -10.3381    1.0000 </r>
       <r>  -10.1769    1.0000 </r>
       <r>  -10.0973    1.0000 </r>
       <r>  -10.0707    1.0000 </r>
       <r>   -9.9442    1.0000 </r>
       <r>   -9.8338    1.0000 </r>
       <r>   -9.7684    1.0000 </r>
       <r>   -9.7570    1.0000 </r>
       <r>   -9.7078    1.0000 </r>
       <r>   -9.6585    1.0000 </r>
       <r>   -9.6520    1.0000 </r>
       <r>   -9.5410    1.0000 </r>
       <r>   -9.4947    1.0000 </r>
       <r>   -9.4434    1.0000 </r>
       <r>   -9.3849    1.0000 </r>
       <r>   -9.3008    1.0000 </r>
       <r>   -9.2816    1.0000 </r>
       <r>   -9.1878    1.0000 </r>
       <r>   -9.0759    1.0000 </r>
       <r>   -9.0526    1.0000 </r>
       <r>   -8.8947    1.0000 </r>
       <r>   -8.8483    1.0000 </r>
       <r>   -8.6399    1.0000 </r>
       <r>   -8.5176    1.0000 </r>
       <r>   -8.4721    1.0000 </r>
       <r>   -8.3381    1.0000 </r>
       <r>   -8.2849    1.0000 </r>
       <r>   -8.0467    1.0000 </r>
       <r>   -7.9516    1.0000 </r>
       <r>   -7.8755    1.0000 </r>
       <r>   -7.7299    1.0000 </r>
       <r>   -7.6626    1.0000 </r>
       <r>   -7.6053    1.0000 </r>
       <r>   -7.4998    1.0000 </r>
       <r>   -7.4168    1.0000 </r>
       <r>   -7.3519    1.0000 </r>
       <r>   -7.2869    1.0000 </r>
       <r>   -7.2476    1.0000 </r>
       <r>   -7.1469    1.0000 </r>
       <r>   -7.0395    1.0000 </r>
       <r>   -6.9818    1.0000 </r>
       <r>   -6.9365    1.0000 </r>
       <r>   -6.7962    1.0000 </r>
       <r>   -6.7438    1.0000 </r>
       <r>   -6.6885    1.0000 </r>
       <r>   -6.6282    1.0000 </r>
       <r>   -6.2966    1.0000 </r>
       <r>   -6.0391    1.0000 </r>
       <r>   -5.9880    1.0000 </r>
       <r>   -5.7936    1.0000 </r>
       <r>   -5.6335    1.0000 </r>
       <r>   -5.2600    1.0000 </r>
       <r>   -4.9690    1.0000 </r>
       <r>   -4.7225    1.0000 </r>
       <r>   -4.4545    1.0000 </r>
       <r>   -4.1691    1.0000 </r>
       <r>   -3.8304    1.0000 </r>
       <r>   -3.6274    1.0000 </r>
       <r>   -2.7647    0.0000 </r>
       <r>   -2.5450    0.0000 </r>
       <r>   -2.3760    0.0000 </r>
       <r>   -2.0669    0.0000 </r>
       <r>   -1.6221    0.0000 </r>
       <r>   -1.4748    0.0000 </r>
       <r>   -1.2568    0.0000 </r>
       <r>   -1.1249    0.0000 </r>
       <r>   -0.7422    0.0000 </r>
       <r>   -0.6243    0.0000 </r>
       <r>    0.0094    0.0000 </r>
       <r>    0.1317    0.0000 </r>
       <r>    0.2385    0.0000 </r>
       <r>    0.2902    0.0000 </r>
       <r>    0.4069    0.0000 </r>
       <r>    0.5193    0.0000 </r>
       <r>    0.7175    0.0000 </r>
       <r>    0.7811    0.0000 </r>
       <r>    0.9188    0.0000 </r>
       <r>    0.9713    0.0000 </r>
       <r>    1.0721    0.0000 </r>
       <r>    1.2146    0.0000 </r>
       <r>    1.2736    0.0000 </r>
       <r>    1.2993    0.0000 </r>
       <r>    1.3582    0.0000 </r>
       <r>    1.5172    0.0000 </r>
       <r>    1.6789    0.0000 </r>
       <r>    1.7988    0.0000 </r>
       <r>    1.8226    0.0000 </r>
       <r>    1.8586    0.0000 </r>
       <r>    1.8768    0.0000 </r>
       <r>    1.8972    0.0000 </r>
      </set>
     </set>
    </set>
   </array>
  </eigenvalues>
  <separator name="orbital magnetization" >
   <v name="MAGDIPOLOUT">      0.00000000      0.00000000      0.00000000</v>
  </separator>
 </calculation>
 <structure name="finalpos" >
  <crystal>
   <varray name="basis" >
    <v>       9.83174697       0.15492140      -0.01230162 </v>
    <v>       5.05666457       8.43319271      -0.01309993 </v>
    <v>      -0.06179162      -0.04043584      49.95911364 </v>
   </varray>
   <i name="volume">   4103.11460630 </i>
   <varray name="rec_basis" >
    <v>       0.10268158      -0.06156925       0.00007717 </v>
    <v>      -0.00188619       0.11971018       0.00009456 </v>
    <v>       0.00002479       0.00001623       0.02001641 </v>
   </varray>
  </crystal>
  <varray name="positions" >
   <v>       0.99544674       0.99532884       0.38332420 </v>
   <v>       0.07621937       0.07609588       0.38281028 </v>
   <v>       0.08072663       0.08079999       0.45296520 </v>
   <v>       0.16194303       0.16201211       0.44984677 </v>
   <v>       0.00371592       0.24214890       0.38345710 </v>
   <v>       0.11073808       0.29697992       0.38496213 </v>
   <v>       0.07972366       0.33093164       0.44995755 </v>
   <v>       0.16103111       0.41120087       0.44515490 </v>
   <v>       0.02341468       0.47455419       0.38653733 </v>
   <v>       0.09357675       0.57242044       0.38868242 </v>
   <v>       0.09407637       0.57309794       0.45131532 </v>
   <v>       0.19193482       0.64326725       0.45345952 </v>
   <v>       0.00217451       0.74246258       0.38520318 </v>
   <v>       0.08227197       0.82742722       0.38444252 </v>
   <v>       0.09338535       0.82162603       0.45423049 </v>
   <v>       0.16857850       0.91100516       0.45430280 </v>
   <v>       0.24226819       0.00359612       0.38346304 </v>
   <v>       0.29709884       0.11061909       0.38496521 </v>
   <v>       0.33086387       0.07978533       0.44995421 </v>
   <v>       0.41114516       0.16108350       0.44515596 </v>
   <v>       0.35141575       0.35135261       0.40778606 </v>
   <v>       0.31518967       0.31521129       0.43221407 </v>
   <v>       0.25546030       0.50548059       0.39484387 </v>
   <v>       0.33574196       0.58677838       0.39004627 </v>
   <v>       0.36950657       0.55594452       0.45503556 </v>
   <v>       0.42433759       0.66296787       0.45653778 </v>
   <v>       0.24951612       0.75128408       0.38535003 </v>
   <v>       0.33097687       0.83592832       0.38445986 </v>
   <v>       0.33562920       0.83063532       0.45554091 </v>
   <v>       0.41708987       0.91527952       0.45464984 </v>
   <v>       0.47467079       0.02329662       0.38654035 </v>
   <v>       0.57252898       0.09346652       0.38868374 </v>
   <v>       0.57302969       0.09414293       0.45131654 </v>
   <v>       0.64319113       0.19200946       0.45346265 </v>
   <v>       0.50557486       0.25536263       0.39484508 </v>
   <v>       0.58688219       0.33563221       0.39004326 </v>
   <v>       0.55586767       0.36958343       0.45503880 </v>
   <v>       0.66289004       0.42441485       0.45654411 </v>
   <v>       0.50466280       0.50455176       0.39015466 </v>
   <v>       0.58587961       0.58576414       0.38703641 </v>
   <v>       0.59038645       0.59046780       0.45719023 </v>
   <v>       0.67115853       0.67123443       0.45667454 </v>
   <v>       0.49802714       0.75555878       0.38569833 </v>
   <v>       0.57322055       0.84493793       0.38576967 </v>
   <v>       0.58433412       0.83913643       0.45555569 </v>
   <v>       0.66443161       0.92410031       0.45479459 </v>
   <v>       0.74257584       0.00205937       0.38520227 </v>
   <v>       0.82754309       0.08215318       0.38443793 </v>
   <v>       0.82154891       0.09346273       0.45423363 </v>
   <v>       0.91092864       0.16865533       0.45430844 </v>
   <v>       0.75139448       0.24940070       0.38534251 </v>
   <v>       0.83604472       0.33085682       0.38445102 </v>
   <v>       0.83056123       0.33570707       0.45555033 </v>
   <v>       0.91521137       0.41716322       0.45465792 </v>
   <v>       0.75567731       0.49790835       0.38569303 </v>
   <v>       0.84505709       0.57310115       0.38576669 </v>
   <v>       0.83906271       0.58441078       0.45556063 </v>
   <v>       0.92402906       0.66450481       0.45479565 </v>
   <v>       0.74968894       0.74957052       0.38576866 </v>
   <v>       0.83127999       0.83116326       0.38468506 </v>
   <v>       0.83532576       0.83540055       0.45531259 </v>
   <v>       0.91691688       0.91699334       0.45423059 </v>
  </varray>
 </structure>
</modeling>
