unknown system                          
           1
     9.846720    0.000000    0.000000
     4.930000    8.528480    0.000000
     0.000000    0.000000   50.000000
   C 
  62
Direct configuration=     1
   0.99671412  0.99659872  0.38387190
   0.07817809  0.07805861  0.38311355
   0.08185012  0.08194452  0.45366302
   0.16364060  0.16372089  0.45071975
   0.00228531  0.24416142  0.38354110
   0.09639621  0.31235389  0.38488528
   0.08090606  0.33195535  0.45044947
   0.16212993  0.41340803  0.44547035
   0.01530902  0.48308936  0.38661050
   0.09074370  0.57629406  0.38905413
   0.09023018  0.57592546  0.45094237
   0.18335883  0.65143966  0.45338085
   0.00145078  0.74450433  0.38587240
   0.08266948  0.82926569  0.38497445
   0.08986537  0.82597572  0.45434441
   0.16850277  0.91305454  0.45472239
   0.24431058  0.00210853  0.38354735
   0.31252023  0.09618184  0.38489037
   0.33189526  0.08091522  0.45043142
   0.41335126  0.16212183  0.44545722
   0.34953838  0.34949288  0.40737061
   0.31706956  0.31707291  0.43262920
   0.25325593  0.50444190  0.39454276
   0.33471143  0.58565316  0.38956832
   0.35407975  0.57038663  0.45511303
   0.42229505  0.66445418  0.45645513
   0.24915288  0.75040992  0.38543145
   0.33180346  0.83458720  0.38436669
   0.33480069  0.83197850  0.45563468
   0.41745142  0.91615259  0.45456743
   0.48324629  0.01512243  0.38661954
   0.57637428  0.09063882  0.38905635
   0.57585992  0.09027011  0.45094488
   0.65129648  0.18347291  0.45339056
   0.50447527  0.25315628  0.39452964
   0.58570280  0.33461067  0.38955108
   0.57021493  0.35420528  0.45511816
   0.66431928  0.42240259  0.45646130
   0.50296802  0.50284587  0.38928378
   0.58475449  0.58461604  0.38634090
   0.58842866  0.58850414  0.45688724
   0.66989288  0.66996552  0.45612558
   0.49810182  0.75350895  0.38528048
   0.57673788  0.84059301  0.38565430
   0.58393666  0.83728854  0.45502184
   0.66515662  0.92206191  0.45412363
   0.74460106  0.00134061  0.38587227
   0.82934844  0.08257652  0.38496636
   0.82584931  0.08998121  0.45435392
   0.91293958  0.16861337  0.45473336
   0.75051117  0.24903305  0.38541555
   0.83471412  0.33167702  0.38435407
   0.83189421  0.33488478  0.45564798
   0.91609641  0.41752749  0.45458455
   0.75366598  0.49795119  0.38526997
   0.84076058  0.57657929  0.38564540
   0.83724589  0.58399001  0.45503101
   0.92200787  0.66522410  0.45412400
   0.74964957  0.74949247  0.38582187
   0.83188017  0.83178363  0.38528629
   0.83472378  0.83477881  0.45470840
   0.91695875  0.91707273  0.45417417
unknown system                          
           1
     9.760500    0.232674    0.000536
     5.088356    8.327918    0.000566
     0.002722    0.001743   49.935867
   C 
  62
Direct configuration=     2
   0.99663011  0.99651914  0.38388378
   0.07805185  0.07793238  0.38312524
   0.08183847  0.08191676  0.45365740
   0.16367083  0.16375792  0.45070770
   0.00216360  0.24438841  0.38355495
   0.09647640  0.31236789  0.38490391
   0.08070532  0.33209765  0.45044025
   0.16227601  0.41323421  0.44544057
   0.01517352  0.48287877  0.38662042
   0.09079383  0.57635322  0.38906727
   0.09018545  0.57586596  0.45092866
   0.18356692  0.65157993  0.45337076
   0.00139972  0.74457456  0.38588521
   0.08263350  0.82933285  0.38499094
   0.08987218  0.82590641  0.45433428
   0.16850742  0.91296088  0.45471261
   0.24453813  0.00198972  0.38356111
   0.31253849  0.09625988  0.38490896
   0.33204599  0.08070847  0.45042244
   0.41316063  0.16227518  0.44542701
   0.34969118  0.34965020  0.40727472
   0.31691473  0.31691505  0.43272588
   0.25344023  0.50429820  0.39457204
   0.33456043  0.58584632  0.38957837
   0.35406329  0.57030475  0.45509402
   0.42206689  0.66457931  0.45644100
   0.24922923  0.75027333  0.38544741
   0.33178537  0.83456396  0.38438042
   0.33482164  0.83199563  0.45562126
   0.41737874  0.91629180  0.45455156
   0.48303476  0.01499089  0.38662941
   0.57642296  0.09069858  0.38906997
   0.57581937  0.09021051  0.45093178
   0.65143638  0.18368213  0.45338023
   0.50433736  0.25332936  0.39455866
   0.58589715  0.33446306  0.38956111
   0.57013032  0.35418938  0.45509912
   0.66445065  0.42217268  0.45644733
   0.50293021  0.50280099  0.38929502
   0.58477488  0.58465926  0.38634613
   0.58854890  0.58863102  0.45687558
   0.66996533  0.67003879  0.45611391
   0.49809814  0.75360561  0.38528948
   0.57673490  0.84064940  0.38566510
   0.58397144  0.83725292  0.45500546
   0.66519875  0.92197297  0.45411101
   0.74467617  0.00128842  0.38588496
   0.82941773  0.08253962  0.38498287
   0.82577710  0.08998780  0.45434365
   0.91283124  0.16863595  0.45472381
   0.75037283  0.24910546  0.38543148
   0.83468847  0.33167235  0.38436791
   0.83191450  0.33489417  0.45563441
   0.91622550  0.41746849  0.45456878
   0.75377846  0.49792112  0.38527877
   0.84082444  0.57657886  0.38565618
   0.83721740  0.58401578  0.45501425
   0.92190950  0.66527250  0.45411153
   0.74954751  0.74939688  0.38583243
   0.83194160  0.83183962  0.38529957
   0.83467173  0.83472983  0.45469557
   0.91705381  0.91716383  0.45416437
unknown system                          
           1
     9.861962    0.146360   -0.001357
     5.064381    8.463188   -0.001447
    -0.006801   -0.004489   49.944074
   C 
  62
Direct configuration=     3
   0.99737815  0.99732446  0.38383838
   0.07753842  0.07736503  0.38310899
   0.08239993  0.08256011  0.45360870
   0.16302660  0.16305493  0.45066397
   0.00245010  0.24524277  0.38353721
   0.09962273  0.30856442  0.38489525
   0.08180263  0.33229787  0.45037547
   0.16193967  0.41244935  0.44542849
   0.01671417  0.48270424  0.38666341
   0.09064773  0.57491602  0.38902064
   0.09154784  0.57609140  0.45097906
   0.18377613  0.65000289  0.45332849
   0.00190699  0.74552584  0.38579854
   0.08183791  0.82849466  0.38497814
   0.09025743  0.82658550  0.45433824
   0.16734934  0.91264850  0.45469325
   0.24532612  0.00234028  0.38354321
   0.30874467  0.09943323  0.38490047
   0.33217105  0.08189385  0.45035775
   0.41245637  0.16190695  0.44542146
   0.34952034  0.34943691  0.40762874
   0.31708684  0.31712999  0.43237106
   0.25415349  0.50465362  0.39457861
   0.33443120  0.58467444  0.38964260
   0.35786036  0.56713373  0.45510246
   0.42127551  0.66422009  0.45645885
   0.24988665  0.75129902  0.38540048
   0.33090235  0.83377177  0.38437716
   0.33570244  0.83279521  0.45562440
   0.41672027  0.91526368  0.45459870
   0.48282734  0.01656157  0.38667160
   0.57505035  0.09047625  0.38901968
   0.57595666  0.09164362  0.45097811
   0.64989427  0.18385653  0.45333720
   0.50466479  0.25411427  0.39457152
   0.58480315  0.33426583  0.38962564
   0.56698664  0.35799861  0.45510779
   0.66415181  0.42131829  0.45646504
   0.50358220  0.50351200  0.38933858
   0.58420549  0.58400091  0.38639490
   0.58906812  0.58919787  0.45689181
   0.66923583  0.66924240  0.45615904
   0.49925573  0.75391743  0.38530884
   0.57634670  0.83998224  0.38566122
   0.58477030  0.83805473  0.45501861
   0.66470441  0.92104334  0.45419747
   0.74557891  0.00184071  0.38579867
   0.82863825  0.08168064  0.38497001
   0.82644026  0.09039209  0.45434706
   0.91259727  0.16738772  0.45470345
   0.75133256  0.24983806  0.38538630
   0.83396997  0.33069410  0.38436416
   0.83263970  0.33586628  0.45563808
   0.91528069  0.41671944  0.45461384
   0.75400942  0.49917884  0.38529914
   0.84016821  0.57616972  0.38565281
   0.83794663  0.58489292  0.45502756
   0.92103545  0.66472534  0.45419751
   0.74990362  0.74976623  0.38583841
   0.83139748  0.83126015  0.38525077
   0.83520159  0.83530024  0.45474445
   0.91670239  0.91679780  0.45415853
unknown system                          
           1
     9.887106    0.085201   -0.004259
     5.024007    8.517173   -0.004479
    -0.021352   -0.013668   49.955414
   C 
  62
Direct configuration=     4
   0.99586248  0.99565727  0.38382887
   0.07904854  0.07900506  0.38308223
   0.08105877  0.08104518  0.45356807
   0.16421822  0.16439328  0.45047368
   0.00209464  0.24343342  0.38351586
   0.10342525  0.30527755  0.38493311
   0.07975174  0.33148639  0.45039245
   0.16233096  0.41349495  0.44532874
   0.01792906  0.47948747  0.38665074
   0.09200688  0.57587356  0.38894198
   0.09070781  0.57458388  0.45105331
   0.18694646  0.64881559  0.45334364
   0.00119133  0.74304650  0.38572888
   0.08363564  0.83021354  0.38489645
   0.09050517  0.82434626  0.45431452
   0.16946892  0.91369215  0.45465127
   0.24366136  0.00187299  0.38352302
   0.30538155  0.10329657  0.38493766
   0.33152669  0.07967850  0.45038131
   0.41334369  0.16244130  0.44532051
   0.35099693  0.35097803  0.40725930
   0.31561119  0.31558579  0.43274107
   0.25325615  0.50412331  0.39467924
   0.33508562  0.58688805  0.38961897
   0.36121527  0.56326475  0.45506474
   0.42295060  0.66469595  0.45647897
   0.24834945  0.74886805  0.38542980
   0.33348233  0.83508265  0.38437468
   0.33312235  0.83148096  0.45562674
   0.41825645  0.91769120  0.45456968
   0.47965855  0.01774726  0.38665648
   0.57590414  0.09197826  0.38894512
   0.57460364  0.09069301  0.45105676
   0.64867475  0.18707491  0.45334970
   0.50427066  0.25306930  0.39467146
   0.58686335  0.33507934  0.38960829
   0.56317944  0.36127901  0.45506948
   0.66451573  0.42313532  0.45648641
   0.50238570  0.50216960  0.38952898
   0.58554734  0.58552000  0.38643489
   0.58755985  0.58755907  0.45691851
   0.67072889  0.67090206  0.45616888
   0.49713744  0.75287124  0.38535079
   0.57609724  0.84222175  0.38568505
   0.58297473  0.83635961  0.45510023
   0.66540729  0.92350733  0.45426741
   0.74321325  0.00100914  0.38572706
   0.83020115  0.08364118  0.38489046
   0.82426552  0.09057397  0.45432194
   0.91347396  0.16968552  0.45466217
   0.74909707  0.24810764  0.38541308
   0.83509135  0.33347734  0.38436348
   0.83151572  0.33308726  0.45563866
   0.91749461  0.41846521  0.45458756
   0.75313272  0.49687585  0.38534036
   0.84234453  0.57598704  0.38567799
   0.83642496  0.58291527  0.45510681
   0.92337697  0.66555452  0.45426949
   0.74958954  0.74941486  0.38583792
   0.83208970  0.83203347  0.38518064
   0.83452292  0.83453254  0.45481484
   0.91701544  0.91714888  0.45415960
unknown system                          
           1
     9.820323    0.105254   -0.002499
     5.007930    8.449648   -0.002767
    -0.012404   -0.008780   49.933836
   C 
  62
Direct configuration=     5
   0.99704450  0.99697255  0.38381071
   0.07759053  0.07743914  0.38308628
   0.08203645  0.08216149  0.45352043
   0.16327232  0.16332455  0.45053124
   0.00267059  0.24401835  0.38353057
   0.10267977  0.30568357  0.38493975
   0.08098131  0.33194380  0.45034116
   0.16169889  0.41267697  0.44537228
   0.01835635  0.47943756  0.38664035
   0.09157671  0.57516777  0.38895364
   0.09132985  0.57511165  0.45104498
   0.18702829  0.64836196  0.45335359
   0.00170007  0.74421290  0.38571799
   0.08238214  0.82893755  0.38490872
   0.09117245  0.82462885  0.45430772
   0.16808187  0.91288023  0.45464321
   0.24413259  0.00255402  0.38353724
   0.30581976  0.10252946  0.38494442
   0.33184269  0.08106815  0.45032749
   0.41262891  0.16172185  0.44536861
   0.35051609  0.35044008  0.40748366
   0.31608938  0.31612449  0.43251691
   0.25397694  0.50484485  0.39463103
   0.33476513  0.58549179  0.38967314
   0.36078309  0.56403569  0.45505798
   0.42247288  0.66401027  0.45646465
   0.24951331  0.75060481  0.38540822
   0.33158195  0.83465530  0.38438132
   0.33502559  0.83190694  0.45562009
   0.41709334  0.91596100  0.45459120
   0.47957532  0.01820309  0.38664651
   0.57527402  0.09145410  0.38895364
   0.57503032  0.09139499  0.45104502
   0.64825053  0.18712421  0.45336010
   0.50490975  0.25388663  0.39462746
   0.58562012  0.33462245  0.38966005
   0.56392737  0.36087704  0.45506280
   0.66393792  0.42254340  0.45647161
   0.50333425  0.50323934  0.38947122
   0.58457110  0.58440468  0.38648244
   0.58901421  0.58912574  0.45691445
   0.66956155  0.66958826  0.45618700
   0.49852230  0.75368410  0.38535876
   0.57543286  0.84193542  0.38569191
   0.58422262  0.83762854  0.45508811
   0.66490493  0.92234695  0.45427827
   0.74430203  0.00159768  0.38571707
   0.82907360  0.08223360  0.38490134
   0.82451509  0.09127544  0.45431505
   0.91280916  0.16814396  0.45465274
   0.75065561  0.24944459  0.38539498
   0.83481346  0.33141326  0.38436877
   0.83179075  0.33515284  0.45563336
   0.91595357  0.41711825  0.45460537
   0.75379759  0.49841752  0.38534971
   0.84209128  0.57528831  0.38568494
   0.83753247  0.58433139  0.45509615
   0.92230024  0.66496484  0.45427938
   0.74964672  0.74950268  0.38583192
   0.83184936  0.83173074  0.38517508
   0.83475657  0.83483418  0.45482052
   0.91695920  0.91706116  0.45416570
unknown system                          
           1
     9.832812    0.129611   -0.003496
     5.035290    8.446551   -0.003758
    -0.017481   -0.011671   49.923690
   C 
  62
Direct configuration=     6
   0.99643513  0.99628458  0.38380170
   0.07778400  0.07768211  0.38307129
   0.08178484  0.08184413  0.45350591
   0.16335744  0.16346387  0.45049351
   0.00277005  0.24373744  0.38352959
   0.10348529  0.30500134  0.38494605
   0.08068859  0.33177235  0.45033616
   0.16180349  0.41252785  0.44535583
   0.01882169  0.47957298  0.38664149
   0.09141739  0.57460444  0.38894257
   0.09191111  0.57524898  0.45105461
   0.18689523  0.64789477  0.45335273
   0.00184172  0.74432076  0.38569546
   0.08252524  0.82883132  0.38489215
   0.09140861  0.82455732  0.45430346
   0.16833589  0.91252573  0.45462878
   0.24389455  0.00260590  0.38353647
   0.30513891  0.10333774  0.38495061
   0.33173559  0.08068867  0.45032512
   0.41245544  0.16185004  0.44535087
   0.35019333  0.35013364  0.40763735
   0.31641301  0.31643152  0.43236284
   0.25415077  0.50471212  0.39464912
   0.33486922  0.58587948  0.38967527
   0.36146494  0.56322796  0.45505167
   0.42270993  0.66395696  0.45646532
   0.24937179  0.75072484  0.38540229
   0.33160727  0.83473503  0.38438349
   0.33499736  0.83183071  0.45561789
   0.41723473  0.91583658  0.45459727
   0.47970881  0.01867046  0.38664734
   0.57469308  0.09131521  0.38894395
   0.57518853  0.09195800  0.45105603
   0.64778540  0.18698930  0.45335891
   0.50480012  0.25403643  0.39464430
   0.58592201  0.33479011  0.38966478
   0.56312309  0.36156025  0.45505640
   0.66383332  0.42282680  0.45647253
   0.50324981  0.50310181  0.38950888
   0.58482109  0.58471899  0.38649691
   0.58882234  0.58887929  0.45692946
   0.67017071  0.67028176  0.45619599
   0.49827167  0.75403821  0.38537312
   0.57519653  0.84200705  0.38569626
   0.58408195  0.83772666  0.45510484
   0.66476609  0.92224359  0.45430083
   0.74443968  0.00171473  0.38569408
   0.82888957  0.08245731  0.38488544
   0.82445423  0.09150687  0.45431044
   0.91239370  0.16846552  0.45463870
   0.75087746  0.24920634  0.38538750
   0.83482347  0.33151567  0.38437146
   0.83178575  0.33504540  0.45563063
   0.91572614  0.41735907  0.45461297
   0.75421193  0.49810087  0.38536368
   0.84215216  0.57505606  0.38568961
   0.83771247  0.58410595  0.45511214
   0.92216597  0.66485187  0.45430241
   0.74985725  0.74971775  0.38583377
   0.83150796  0.83140416  0.38515123
   0.83509628  0.83515799  0.45484452
   0.91674847  0.91684627  0.45416400
unknown system                          
           1
     9.840870    0.145366   -0.004742
     5.052954    8.446260   -0.005103
    -0.023785   -0.015899   49.924059
   C 
  62
Direct configuration=     7
   0.99664645  0.99659436  0.38376234
   0.07697984  0.07681814  0.38305035
   0.08171473  0.08185416  0.45345476
   0.16287398  0.16290366  0.45044092
   0.00294481  0.24396189  0.38353120
   0.10495915  0.30346464  0.38495660
   0.08055704  0.33205849  0.45028921
   0.16179654  0.41243988  0.44531912
   0.01934461  0.47875791  0.38662971
   0.09194271  0.57448186  0.38891519
   0.09200245  0.57476124  0.45108339
   0.18772340  0.64735734  0.45336467
   0.00186904  0.74378206  0.38565115
   0.08235387  0.82846005  0.38485801
   0.09160561  0.82405392  0.45429318
   0.16833267  0.91228197  0.45459692
   0.24405168  0.00285239  0.38353799
   0.30361073  0.10480741  0.38496097
   0.33193595  0.08066654  0.45027768
   0.41240072  0.16181342  0.44531695
   0.35061275  0.35053863  0.40747372
   0.31599346  0.31602619  0.43252664
   0.25420324  0.50475226  0.39468278
   0.33467172  0.58589479  0.38972297
   0.36299192  0.56175749  0.45504105
   0.42255427  0.66371236  0.45646369
   0.24962834  0.75096738  0.38538733
   0.33122874  0.83496208  0.38438725
   0.33537836  0.83160056  0.45561410
   0.41697639  0.91559766  0.45461226
   0.47888140  0.01920659  0.38663533
   0.57460228  0.09180553  0.38891526
   0.57466572  0.09208131  0.45108346
   0.64726157  0.18780479  0.45337058
   0.50481063  0.25412232  0.39468078
   0.58604668  0.33450748  0.38971195
   0.56164764  0.36309634  0.45504561
   0.66366463  0.42259911  0.45647082
   0.50373210  0.50366006  0.38956133
   0.58489208  0.58471092  0.38654783
   0.58962451  0.58974749  0.45695035
   0.66995794  0.66996479  0.45623554
   0.49827170  0.75428295  0.38540484
   0.57499986  0.84251096  0.38570666
   0.58425198  0.83810665  0.45513905
   0.66473610  0.92277877  0.45434529
   0.74386414  0.00177773  0.38565010
   0.82862933  0.08217887  0.38485040
   0.82394665  0.09170463  0.45429952
   0.91223680  0.16837878  0.45460567
   0.75099857  0.24958025  0.38537552
   0.83514027  0.33104509  0.38437463
   0.83146293  0.33552188  0.45562746
   0.91560951  0.41698109  0.45462491
   0.75437125  0.49818220  0.38539655
   0.84266000  0.57485903  0.38570063
   0.83797733  0.58438703  0.45514723
   0.92273910  0.66478500  0.45434653
   0.74952111  0.74938536  0.38583498
   0.83179620  0.83166560  0.38510197
   0.83481006  0.83489940  0.45489404
   0.91708437  0.91717818  0.45416309
unknown system                          
           1
     9.832988    0.135687   -0.004736
     5.040633    8.444033   -0.005119
    -0.023726   -0.015991   49.921129
   C 
  62
Direct configuration=     8
   0.99640631  0.99628530  0.38374377
   0.07732654  0.07720111  0.38304205
   0.08162555  0.08171005  0.45342796
   0.16295469  0.16303200  0.45040220
   0.00319091  0.24338030  0.38352776
   0.10553921  0.30273544  0.38496075
   0.08068611  0.33172741  0.45026490
   0.16148240  0.41230839  0.44532965
   0.01983778  0.47822497  0.38662653
   0.09202413  0.57426000  0.38889753
   0.09224397  0.57465411  0.45109997
   0.18824746  0.64686797  0.45336828
   0.00193492  0.74379826  0.38562209
   0.08238704  0.82841839  0.38483515
   0.09186774  0.82389118  0.45428892
   0.16832491  0.91223415  0.45458008
   0.24350977  0.00305335  0.38353470
   0.30286627  0.10540073  0.38496493
   0.33165715  0.08073542  0.45025523
   0.41224669  0.16152228  0.44532708
   0.35057187  0.35050620  0.40758323
   0.31603380  0.31605837  0.43241715
   0.25435967  0.50504295  0.39467267
   0.33494872  0.58582667  0.38974543
   0.36373747  0.56116423  0.45503700
   0.42309537  0.66351078  0.45646691
   0.24938072  0.75090057  0.38538817
   0.33145477  0.83508978  0.38439105
   0.33515135  0.83147344  0.45561027
   0.41722626  0.91566383  0.45461146
   0.47835722  0.01969677  0.38663173
   0.57436110  0.09191049  0.38889864
   0.57458214  0.09230355  0.45110106
   0.64676884  0.18833775  0.45337374
   0.50512487  0.25425602  0.39467024
   0.58591787  0.33483661  0.38973628
   0.56106785  0.36382600  0.45504136
   0.66341527  0.42318298  0.45647423
   0.50365167  0.50353194  0.38959997
   0.58498163  0.58485518  0.38657452
   0.58927814  0.58936165  0.45695867
   0.67019938  0.67027796  0.45625413
   0.49828013  0.75432978  0.38542165
   0.57473773  0.84267341  0.38571096
   0.58421777  0.83814567  0.45516200
   0.66467120  0.92276333  0.45437442
   0.74390899  0.00181693  0.38562069
   0.82851921  0.08227729  0.38482830
   0.82379422  0.09196310  0.45429492
   0.91213745  0.16841653  0.45458905
   0.75100675  0.24926322  0.38537537
   0.83520663  0.33132756  0.38437903
   0.83139950  0.33523604  0.45562299
   0.91560016  0.41730141  0.45462508
   0.75446856  0.49814639  0.38541313
   0.84281255  0.57460054  0.38570525
   0.83808684  0.58428577  0.45516938
   0.92269452  0.66474734  0.45437601
   0.74974893  0.74961506  0.38583099
   0.83153908  0.83142660  0.38508090
   0.83506692  0.83513761  0.45491524
   0.91685698  0.91694881  0.45416718
unknown system                          
           1
     9.833835    0.140911   -0.005576
     5.045581    8.442056   -0.006030
    -0.027963   -0.018862   49.916155
   C 
  62
Direct configuration=     9
   0.99609244  0.99597791  0.38369789
   0.07698579  0.07687155  0.38301610
   0.08141697  0.08149541  0.45336860
   0.16295328  0.16304095  0.45031284
   0.00297604  0.24335569  0.38352306
   0.10692961  0.30146429  0.38497135
   0.07996074  0.33146219  0.45024724
   0.16184110  0.41198808  0.44527872
   0.02073455  0.47745940  0.38661779
   0.09204696  0.57382683  0.38885533
   0.09267107  0.57463093  0.45114207
   0.18902383  0.64596444  0.45337759
   0.00178202  0.74356330  0.38556376
   0.08239735  0.82854310  0.38478225
   0.09217086  0.82330601  0.45427790
   0.16849477  0.91201007  0.45454432
   0.24349318  0.00284856  0.38353008
   0.30159491  0.10679174  0.38497533
   0.33140435  0.07999420  0.45023937
   0.41192569  0.16189044  0.44527684
   0.35062882  0.35056312  0.40768385
   0.31597810  0.31600193  0.43231611
   0.25467704  0.50467009  0.39472327
   0.33520176  0.58657785  0.38976091
   0.36500906  0.55977323  0.45502637
   0.42311109  0.66371408  0.45647139
   0.24960946  0.75077087  0.38538609
   0.33117487  0.83533484  0.38440052
   0.33542941  0.83123208  0.45560070
   0.41699412  0.91578876  0.45461372
   0.47758114  0.02060048  0.38662241
   0.57393330  0.09193466  0.38885660
   0.57456076  0.09273511  0.45114331
   0.64587237  0.18910372  0.45338243
   0.50476029  0.25457301  0.39472162
   0.58665484  0.33510105  0.38975347
   0.55967780  0.36509794  0.45503056
   0.66362840  0.42320690  0.45647880
   0.50365311  0.50352486  0.38968925
   0.58518716  0.58506574  0.38663377
   0.58962245  0.58969280  0.45698461
   0.67051160  0.67058665  0.45630010
   0.49811409  0.75455472  0.38545732
   0.57443383  0.84325767  0.38572206
   0.58421363  0.83801378  0.45521512
   0.66482526  0.92300225  0.45443288
   0.74367077  0.00166890  0.38556248
   0.82864751  0.08229203  0.38477561
   0.82320930  0.09225906  0.45428325
   0.91191746  0.16859819  0.45455282
   0.75089283  0.24946962  0.38537388
   0.83545395  0.33106495  0.38438880
   0.83115457  0.33549729  0.45561314
   0.91570863  0.41709317  0.45462672
   0.75468960  0.49796902  0.38544926
   0.84339619  0.57430313  0.38571696
   0.83795339  0.58427482  0.45522224
   0.92293610  0.66489712  0.45443436
   0.74970029  0.74957011  0.38582596
   0.83152669  0.83140585  0.38502727
   0.83507707  0.83515580  0.45496912
   0.91690604  0.91699457  0.45417244
unknown system                          
           1
     9.831889    0.140412   -0.005842
     5.044173    8.440781   -0.006317
    -0.029291   -0.019756   49.919639
   C 
  62
Direct configuration=    10
   0.99618651  0.99607488  0.38368248
   0.07697831  0.07685121  0.38301020
   0.08145654  0.08154725  0.45335062
   0.16270818  0.16277621  0.45030520
   0.00328060  0.24313001  0.38352182
   0.10710988  0.30115026  0.38497137
   0.08041309  0.33154551  0.45021628
   0.16150814  0.41204551  0.44528916
   0.02081961  0.47723741  0.38661227
   0.09235126  0.57374052  0.38885456
   0.09275675  0.57433028  0.45114306
   0.18924299  0.64587816  0.45338310
   0.00192961  0.74354553  0.38554918
   0.08238020  0.82818322  0.38477336
   0.09228154  0.82326688  0.45427621
   0.16845018  0.91190780  0.45453503
   0.24325266  0.00315558  0.38352874
   0.30128211  0.10697563  0.38497535
   0.33146631  0.08047536  0.45020803
   0.41198893  0.16154968  0.44528792
   0.35078787  0.35071905  0.40762284
   0.31581795  0.31584544  0.43237742
   0.25461652  0.50501464  0.39471190
   0.33513969  0.58608812  0.38979257
   0.36532210  0.55958901  0.45502630
   0.42335307  0.66340810  0.45647271
   0.24942963  0.75114324  0.38537771
   0.33128501  0.83523176  0.38440311
   0.33532088  0.83133193  0.45559811
   0.41717670  0.91542082  0.45462201
   0.47736154  0.02068621  0.38661688
   0.57384811  0.09223474  0.38885563
   0.57425542  0.09282262  0.45114408
   0.64578678  0.18932514  0.45338792
   0.50509801  0.25451786  0.39471083
   0.58619238  0.33501878  0.38978480
   0.55949691  0.36541201  0.45503048
   0.66332554  0.42343322  0.45648002
   0.50389850  0.50378829  0.38969680
   0.58514970  0.58501695  0.38665165
   0.58962662  0.58971197  0.45699051
   0.67041941  0.67048829  0.45631556
   0.49815530  0.75465622  0.38546658
   0.57432431  0.84329772  0.38572377
   0.58422517  0.83837977  0.45522400
   0.66467712  0.92301714  0.45444753
   0.74365368  0.00181534  0.38554789
   0.82829677  0.08225980  0.38476673
   0.82317442  0.09237151  0.45428147
   0.91182438  0.16853239  0.45454328
   0.75124147  0.24931987  0.38536615
   0.83535691  0.33115252  0.38439141
   0.83124878  0.33541156  0.45561052
   0.91536539  0.41724390  0.45463433
   0.75478194  0.49803088  0.38545876
   0.84343213  0.57419233  0.38571877
   0.83830780  0.58430402  0.45523112
   0.92295111  0.66474934  0.45444900
   0.74968563  0.74955413  0.38582421
   0.83150190  0.83138568  0.38501413
   0.83510373  0.83517829  0.45498232
   0.91691991  0.91700946  0.45417424
unknown system                          
           1
     9.832563    0.145193   -0.006634
     5.048654    8.438650   -0.007165
    -0.033284   -0.022393   49.922466
   C 
  62
Direct configuration=    11
   0.99594973  0.99581885  0.38363076
   0.07693613  0.07681705  0.38298246
   0.08118003  0.08124913  0.45329315
   0.16262603  0.16271535  0.45022766
   0.00351448  0.24282924  0.38351588
   0.10799973  0.30001896  0.38497386
   0.08023813  0.33152883  0.45017334
   0.16123147  0.41187898  0.44527744
   0.02138938  0.47656450  0.38659790
   0.09263082  0.57360042  0.38882464
   0.09290656  0.57403962  0.45117253
   0.18991054  0.64530716  0.45339776
   0.00212786  0.74309750  0.38549549
   0.08229101  0.82811656  0.38472073
   0.09260488  0.82292964  0.45426888
   0.16839435  0.91181638  0.45449662
   0.24296189  0.00337702  0.38352281
   0.30014105  0.10787130  0.38497760
   0.33147322  0.08028064  0.45016658
   0.41180951  0.16128411  0.44527633
   0.35088836  0.35082733  0.40766227
   0.31571691  0.31573676  0.43233808
   0.25479687  0.50528124  0.39472340
   0.33513251  0.58628156  0.38983409
   0.36646343  0.55869286  0.45502386
   0.42364279  0.66318776  0.45647851
   0.24942209  0.75084154  0.38537880
   0.33127441  0.83565349  0.38440962
   0.33533233  0.83090949  0.45559153
   0.41718441  0.91572244  0.45462097
   0.47669504  0.02125729  0.38660221
   0.57369882  0.09252449  0.38882619
   0.57397547  0.09296321  0.45117402
   0.64521682  0.18999914  0.45340225
   0.50537604  0.25468580  0.39472243
   0.58636627  0.33503453  0.38982777
   0.55860648  0.36654297  0.45502780
   0.66309172  0.42373435  0.45648585
   0.50397920  0.50384773  0.38977424
   0.58542785  0.58531686  0.38670892
   0.58966976  0.58974632  0.45701824
   0.67065431  0.67074391  0.45636741
   0.49821091  0.75474746  0.38550489
   0.57400001  0.84363430  0.38573117
   0.58431482  0.83844894  0.45527676
   0.66447725  0.92346338  0.45450141
   0.74321463  0.00200618  0.38549411
   0.82821356  0.08218718  0.38471458
   0.82284339  0.09269139  0.45427367
   0.91171679  0.16849127  0.45450455
   0.75096324  0.24929245  0.38536749
   0.83575650  0.33116202  0.38439849
   0.83085018  0.33540153  0.45560333
   0.91564224  0.41727259  0.45463301
   0.75488866  0.49807215  0.38549739
   0.84376287  0.57387181  0.38572661
   0.83839508  0.58437593  0.45528335
   0.92338785  0.66455741  0.45450297
   0.74971592  0.74958913  0.38581730
   0.83142379  0.83131098  0.38496157
   0.83518263  0.83525313  0.45503511
   0.91689061  0.91697535  0.45418134
unknown system                          
           1
     9.832834    0.145299   -0.006940
     5.048876    8.439102   -0.007496
    -0.034825   -0.023427   49.923216
   C 
  62
Direct configuration=    12
   0.99600609  0.99589710  0.38361310
   0.07672397  0.07659687  0.38297366
   0.08127136  0.08136020  0.45327102
   0.16254877  0.16261747  0.45020663
   0.00341096  0.24289060  0.38351315
   0.10829778  0.29982936  0.38497523
   0.08019024  0.33134706  0.45016474
   0.16141465  0.41179716  0.44525704
   0.02157487  0.47643516  0.38659597
   0.09264900  0.57339750  0.38881403
   0.09309732  0.57403297  0.45118364
   0.19004774  0.64511816  0.45339979
   0.00197129  0.74321877  0.38547627
   0.08232940  0.82800274  0.38470642
   0.09261100  0.82280102  0.45426606
   0.16848401  0.91164275  0.45448718
   0.24301204  0.00329112  0.38351999
   0.29995591  0.10816736  0.38497898
   0.33127001  0.08025281  0.45015792
   0.41174212  0.16145948  0.44525663
   0.35093923  0.35087060  0.40767003
   0.31566669  0.31569386  0.43233013
   0.25486261  0.50510393  0.39474326
   0.33533588  0.58631275  0.38984260
   0.36664874  0.55839713  0.45502245
   0.42359326  0.66327218  0.45648130
   0.24946779  0.75112063  0.38537186
   0.33116157  0.83549148  0.38441443
   0.33544384  0.83107299  0.45558670
   0.41713801  0.91544230  0.45462793
   0.47655739  0.02144621  0.38660017
   0.57350754  0.09253216  0.38881513
   0.57395790  0.09316548  0.45118466
   0.64503151  0.19012802  0.45340418
   0.50519048  0.25476555  0.39474302
   0.58641764  0.33521678  0.38983621
   0.55830880  0.36673326  0.45502639
   0.66319492  0.42367227  0.45648854
   0.50405760  0.50394714  0.38979523
   0.58533419  0.58520324  0.38673108
   0.58988164  0.58996689  0.45702703
   0.67059986  0.67066667  0.45638507