62
Lattice="9.836182063254634 -0.003828245155324252 3.376755758862106e-05 4.921408183141508 8.516469693635605 5.28465398325968e-05 0.00017223921331050422 0.00021303076328679636 49.095811229275135" Properties=species:S:1:pos:R:3:forces:R:3 energy=-565.2727989505761 stress="2.112355588591251e-06 4.3472256506216404e-11 -1.9684443544717627e-10 4.3472256506216404e-11 2.112369008205273e-06 -1.9535869278188063e-11 -1.9684443544717627e-10 -1.9535869278188063e-11 5.281124667065507e-07" free_energy=-565.2727989505761 pbc="T T T"
C        0.00628756       0.00343881      22.45455236      -0.00016751      -0.00009628      -0.00010125
C        1.23036416       0.70952433      22.46920115      -0.00013813      -0.00007914       0.00654034
C        0.00631549       0.00345678      18.78594172      -0.00016734      -0.00009651       0.00009770
C        1.23039164       0.70954242      18.77131689      -0.00013753      -0.00007920      -0.00655652
C       11.05626239       2.12984955      22.43332926      -0.00017021       0.00009796       0.00704918
C        2.45912269       2.83588335      22.46920355      -0.00000100       0.00015879       0.00655039
C       11.05628912       2.12986687      18.80726746      -0.00016968       0.00009834      -0.00706597
C        2.45914904       2.83590058      18.77132916       0.00000018       0.00015934      -0.00656236
C        2.45967250       4.24900731      22.45456284      -0.00000053       0.00019312      -0.00008625
C        3.68925973       4.95821055      22.33992715      -0.00030390      -0.00009932      -0.00346824
C        2.45969950       4.24902437      18.78596734       0.00000019       0.00019362       0.00008860
C        3.68928667       4.95822658      18.90061258      -0.00030419      -0.00009917       0.00347624
C       13.52633265       6.38267197      22.36845758      -0.00016513       0.00009563      -0.00821557
C        4.92719679       7.10045420      22.33995108      -0.00006564       0.00031300      -0.00347748
C       13.52636086       6.38268823      18.87215971      -0.00016575       0.00009579       0.00822975
C        4.92722447       7.10047045      18.90062778      -0.00006606       0.00031328       0.00348093
C        7.37942120       8.50405513      22.43333518      -0.00000059      -0.00019548       0.00705872
C        3.68622335       0.70856935      22.46918675       0.00013722      -0.00007998       0.00656531
C        7.37944809       8.50407279      18.80728329       0.00000019      -0.00019577      -0.00707285
C        3.68625012       0.70858654      18.77132918       0.00013841      -0.00007971      -0.00657465
C        3.69761797       2.13271424      22.43328736       0.00016830       0.00009727       0.00706547
C        4.92547381       2.84098141      22.13749064       0.00003040       0.00001681       0.00384522
C        3.69764361       2.13273075      18.80724123       0.00016987       0.00009797      -0.00707555
C        4.92549847       2.84099541      19.10304398       0.00003024       0.00001714      -0.00384760
C        4.87139477       4.25505790      21.99881213      -0.00015072      -0.00074313       0.00044686
C        5.84248116       5.14274450      21.30912317       0.00054401      -0.00031547      -0.00012684
C        4.87141820       4.25507032      19.24173390      -0.00015112      -0.00074343      -0.00044536
C        5.84249411       5.14275091      19.93144689       0.00054425      -0.00031602       0.00012425
C        6.12669058       6.42734193      21.99883413       0.00056915       0.00050106       0.00044123
C        7.37886896       7.08656985      22.13752600       0.00000109      -0.00003525       0.00383902
C        6.12671553       6.42735550      19.24175208       0.00056867       0.00050104      -0.00044478
C        7.37889526       7.08658467      19.10307510       0.00000031      -0.00003528      -0.00384677
C        4.90974908       0.00153100      22.45453537       0.00016719      -0.00009697      -0.00006396
C        6.13928261       0.71082667      22.33990185      -0.00023723      -0.00021313      -0.00344825
C        4.90977617       0.00154837      18.78596560       0.00016812      -0.00009701       0.00006989
C        6.13930939       0.71084325      18.90061136      -0.00023728      -0.00021347       0.00345869
C        6.12247175       2.08617825      21.99880066      -0.00071692       0.00023970       0.00045467
C        7.37708555       2.48234540      21.30911510      -0.00000254       0.00062547      -0.00012490
C        6.12249543       2.08619046      19.24173169      -0.00071803       0.00024060      -0.00045200
C        7.37709780       2.48235041      19.93144106      -0.00000312       0.00062734       0.00012267
C        8.91375283       5.14154417      21.30912913      -0.00054035      -0.00030958      -0.00012333
C        8.91377030       5.14155401      19.93145642      -0.00054400      -0.00031142       0.00012214
C        8.63053247       6.42636821      21.99883001      -0.00056404       0.00050047       0.00045444
C        9.83055079       7.09854693      22.33993877       0.00006646       0.00031153      -0.00344421
C        8.63056014       6.42638149      19.24176271      -0.00056687       0.00050051      -0.00045460
C        9.83057790       7.09856283      18.90065379       0.00006657       0.00031189       0.00345437
C       12.29751601       8.51296043      22.36845116       0.00000022      -0.00019136      -0.00820105
C        8.61348970       0.70986346      22.33993228       0.00023731      -0.00021341      -0.00347078
C       12.29754327       8.51297781      18.87217142       0.00000015      -0.00019199       0.00821651
C        8.61351625       0.70988089      18.90061820       0.00023757      -0.00021405       0.00347384
C        8.63137637       2.08520009      21.99882521       0.00071612       0.00024107       0.00044203
C        9.82895974       2.83907128      22.13752451      -0.00003090       0.00001841       0.00383105
C        8.63139936       2.08521347      19.24174586       0.00071603       0.00024165      -0.00044765
C        9.82898488       2.83908689      19.10306630      -0.00003133       0.00001817      -0.00384237
C        9.88414125       4.25310214      21.99883255       0.00014945      -0.00073876       0.00044743
C       11.06682060       4.95533813      22.33994527       0.00030310      -0.00009851      -0.00345750
C        9.88416619       4.25311928      19.24175869       0.00014792      -0.00074074      -0.00045083
C       11.06684668       4.95535517      18.90064543       0.00030366      -0.00009870       0.00346484
C       11.06703976       6.38362863      22.36842899       0.00016636       0.00009584      -0.00819157
C       12.29696174       7.09308678      22.43393336       0.00000133      -0.00000007      -0.00967029
C       11.06706730       6.38364560      18.87216002       0.00016645       0.00009576       0.00820940
C       12.29699040       7.09310428      18.80667208       0.00000113      -0.00000029       0.00969008
