62
Lattice="9.82036590903786 -0.003819408076880063 5.2939755316246115e-05 4.913497094681843 8.502777673662935 6.531968809097081e-05 0.0002699172088757479 0.00023179905221123868 47.24007403348838" Properties=species:S:1:pos:R:3:forces:R:3 energy=-486.4103984663767 stress="-1.8475972145977282e-06 2.642299918358771e-10 -1.3889864533518017e-10 2.642299918358771e-10 -1.8479449195151285e-06 8.279032206901017e-12 -1.3889864533518017e-10 8.279032206901017e-12 -3.6772309758971494e-08" free_energy=-486.4103984663767 pbc="T T T"
C        0.00285593       0.00144300      21.56140348      -0.00008111      -0.00004648      -0.00005132
C        1.22828005       0.70830630      21.56507589      -0.00005866      -0.00003350       0.00665792
C        0.00287735       0.00145921      18.12026522      -0.00008177      -0.00004705       0.00003438
C        1.22830129       0.70832246      18.11663645      -0.00005880      -0.00003382      -0.00671944
C       11.03727525       2.12716149      21.53809160      -0.00020908       0.00012064       0.00691713
C        2.45521318       2.83150650      21.56507806      -0.00000078       0.00006746       0.00669930
C       11.03729680       2.12717648      18.14373983      -0.00021063       0.00012207      -0.00697642
C        2.45523387       2.83152185      18.11666112       0.00000004       0.00006860      -0.00675136
C        2.45576430       4.24618662      21.56141576      -0.00000042       0.00009262       0.00000936
C        3.68718252       4.95081615      21.48753330      -0.00006510      -0.00000134      -0.00323931
C        2.45578509       4.24620172      18.12031125      -0.00000006       0.00009385      -0.00001480
C        3.68720309       4.95083095      18.19420088      -0.00006554      -0.00000093       0.00326005
C       13.50618316       6.37152385      21.54848748      -0.00009784       0.00005618      -0.00777925
C        4.92073102       7.08546352      21.48756246      -0.00003273       0.00005740      -0.00327706
C       13.50620463       6.37153916      18.13335255      -0.00009887       0.00005657       0.00781977
C        4.92075148       7.08547849      18.19420918      -0.00003310       0.00005738       0.00329006
C        7.36760134       8.48894515      21.53808503      -0.00000016      -0.00024207       0.00696713
C        3.68049044       0.70735301      21.56505262       0.00005881      -0.00003452       0.00676909
C        7.36762183       8.48896189      18.14376076       0.00000047      -0.00024428      -0.00701975
C        3.68051081       0.70736903      18.11667595       0.00006028      -0.00003470      -0.00681396
C        3.69297025       2.13001783      21.53802631       0.00020965       0.00012081       0.00699555
C        4.92477584       2.84056287      21.34389223       0.00017459       0.00009974       0.00387510
C        3.69298985       2.13003291      18.14371678       0.00021223       0.00012214      -0.00704010
C        4.92479392       2.84057635      18.33785546       0.00017524       0.00010042      -0.00388141
C        4.88263998       4.25152471      21.20624683       0.00012069      -0.00024216       0.00024986
C        5.88795760       5.10280327      20.56076615       0.00094523      -0.00055025       0.00023118
C        4.88265631       4.25153770      18.47550394       0.00012053      -0.00024242      -0.00023726
C        5.88796499       5.10281069      19.12100437       0.00094485      -0.00054997      -0.00021751
C        6.12353124       6.39887977      21.20627125       0.00027019       0.00001643       0.00022674
C        7.36704770       7.06689997      21.34393440       0.00000128      -0.00020013       0.00384712
C        6.12354757       6.39889272      18.47551610       0.00027007       0.00001636      -0.00022003
C        7.36706642       7.06691450      18.33788343       0.00000091      -0.00020106      -0.00386190
C        4.90536406      -0.00046391      21.56137758       0.00007906      -0.00004589       0.00010952
C        6.13185529       0.71270592      21.48750158      -0.00003412      -0.00005233      -0.00315844
C        4.90538425      -0.00044773      18.12033204       0.00008050      -0.00004649      -0.00010662
C        6.13187531       0.71272184      18.19421766      -0.00003391      -0.00005325       0.00318364
C        6.12505766       2.09765705      21.20623396      -0.00014792       0.00022349       0.00028144
C        7.36529314       2.54168832      20.56076289      -0.00000948       0.00108087       0.00023091
C        6.12507481       2.09766856      18.47551042      -0.00014862       0.00022424      -0.00026855
C        7.36530192       2.54169187      19.12100175      -0.00000943       0.00108254      -0.00021978
C        8.84461180       5.10164614      20.56078289      -0.00093177      -0.00053007       0.00023075
C        8.84462480       5.10165519      19.12102219      -0.00093549      -0.00053223      -0.00022140
C        8.61004403       6.39791261      21.20626873      -0.00026551       0.00001664       0.00027796
C        9.81337929       7.08356141      21.48754680       0.00002793       0.00005520      -0.00314542
C        8.61006242       6.39792563      18.47554439      -0.00026737       0.00001642      -0.00026943
C        9.81339867       7.08357620      18.19427078       0.00002874       0.00005540       0.00316997
C       12.27779003       8.50107817      21.54847423      -0.00000100      -0.00011056      -0.00772704
C        8.59728739       0.71174835      21.48754784       0.00003300      -0.00005597      -0.00325934
C       12.27781079       8.50109482      18.13337077      -0.00000107      -0.00011200       0.00776971
C        8.59730746       0.71176397      18.19420619       0.00003290      -0.00005644       0.00327095
C        8.60516721       2.09669248      21.20626796       0.00014854       0.00022307       0.00021827
C        9.80602492       2.83866444      21.34394414      -0.00017091       0.00009938       0.00379630
C        8.60518409       2.09670401      18.47550972       0.00014836       0.00022380      -0.00021616
C        9.80604420       2.83867797      18.33786596      -0.00017214       0.00009993      -0.00381854
C        9.84926217       4.24959150      21.20627831      -0.00011806      -0.00023826       0.00023790
C       11.04526264       4.94795446      21.48756390       0.00006340      -0.00000173      -0.00320860
C        9.84928027       4.24960505      18.47553153      -0.00011944      -0.00023939      -0.00023427
C       11.04528214       4.94796928      18.19425100       0.00006391      -0.00000142       0.00322725
C       11.04773804       6.37248028      21.54844709       0.00009450       0.00005523      -0.00769293
C       12.27723627       7.08169378      21.62824705      -0.00000039       0.00000017      -0.01045033
C       11.04775789       6.37249547      18.13336294       0.00009567       0.00005580       0.00773945
C       12.27725782       7.08171024      18.05357718      -0.00000028      -0.00000008       0.01050397
