62
Lattice="9.838001370968579 -0.0038254936211593086 4.863999979547007e-05 4.922321447052418 8.518047671446318 6.207603063930486e-05 0.0002480907984172552 0.00022343682056978482 49.22272595444287" Properties=species:S:1:pos:R:3:forces:R:3 energy=-565.7027897611626 stress="-1.5825060434437113e-06 1.970579036019726e-10 -1.7456328276853057e-10 1.970579036019726e-10 -1.5824362088444325e-06 -2.3425706616101665e-11 -1.7456328276853057e-10 -2.3425706616101665e-11 -1.0983378461901376e-07" pbc="T T T"
C        0.00720319       0.00395189      22.50459524      -0.00017558      -0.00010070      -0.00008837
C        1.23021459       0.70942289      22.50358468      -0.00010904      -0.00006114       0.00756920
C        0.00722638       0.00396903      18.84250160      -0.00017576      -0.00010116       0.00007974
C        1.23023753       0.70943992      18.84354840      -0.00010868      -0.00006127      -0.00760471
C       11.05793120       2.13049012      22.46778329      -0.00031303       0.00018017       0.00827878
C        2.45961350       2.83688934      22.50357941      -0.00000267       0.00012453       0.00760616
C       11.05795435       2.13050601      18.87945924      -0.00031370       0.00018124      -0.00831410
C        2.45963590       2.83690571      18.84357927      -0.00000162       0.00012530      -0.00763574
C        2.46016271       4.24878315      22.50459744      -0.00000081       0.00020248      -0.00003755
C        3.69069300       4.95912541      22.40875778      -0.00033211       0.00009171      -0.00384220
C        2.46018527       4.24879936      18.84255365      -0.00000009       0.00020333       0.00003684
C        3.69071537       4.95914100      18.93840244      -0.00033278       0.00009206       0.00385663
C       13.52790881       6.38441837      22.46159009      -0.00032948       0.00019106      -0.00829890
C        4.92850991       7.10115930      22.40879139      -0.00024573       0.00024276      -0.00387387
C       13.52793207       6.38443430      18.88567140      -0.00033061       0.00019153       0.00832547
C        4.92853230       7.10117485      18.93840556      -0.00024643       0.00024317       0.00388232
C        7.38082348       8.50516148      22.46776638      -0.00000136      -0.00035989       0.00832950
C        3.68735142       0.70846871      22.50354172       0.00010728      -0.00006339       0.00766988
C        7.38084571       8.50517900      18.87949317      -0.00000064      -0.00036134      -0.00836098
C        3.68737367       0.70848552      18.84360684       0.00010858      -0.00006326      -0.00769557
C        3.69874814       2.13335201      22.46770394       0.00031024       0.00017965       0.00835824
C        4.92695981       2.84182542      22.18205946       0.00004920       0.00002634       0.00403360
C        3.69876939       2.13336786      18.87945841       0.00031255       0.00018082      -0.00838444
C        4.92697927       2.84183913      19.16510844       0.00004877       0.00002650      -0.00403871
C        4.87151353       4.25897843      22.05083105       0.00003454      -0.00052187       0.00001131
C        5.85167495       5.13903757      21.36919254       0.00046744      -0.00027633      -0.00067665
C        4.87153126       4.25899153      19.29634285       0.00003401      -0.00052254      -0.00000637
C        5.85168371       5.13904432      19.97800119       0.00046731      -0.00027662       0.00067969
C        6.12474348       6.42768640      22.05085938       0.00046960       0.00022942      -0.00001069
C        7.38027005       7.08726551      22.18210575       0.00000289      -0.00005612       0.00400588
C        6.12476137       6.42769913      19.29635073       0.00046921       0.00022953       0.00001023
C        7.38028994       7.08727955      19.16512857       0.00000216      -0.00005607      -0.00401697
C        4.90981146       0.00204614      22.50454393       0.00017558      -0.00010191       0.00004854
C        6.14080273       0.71158704      22.40871498      -0.00008509      -0.00033114      -0.00377659
C        4.90983368       0.00206312      18.84258926       0.00017679      -0.00010213      -0.00004436
C        6.14082464       0.71160368      18.93842868      -0.00008516      -0.00033210       0.00379392
C        6.12593612       2.08429870      22.05081257      -0.00043147       0.00028609       0.00003843
C        7.37849447       2.49214448      21.36918630      -0.00001511       0.00053048      -0.00067360
C        6.12595463       2.08431044      19.29635269      -0.00043289       0.00028698      -0.00003213
C        7.37850375       2.49214954      19.97799815      -0.00001564       0.00053177       0.00067682
C        8.90735361       5.13783596      21.36920313      -0.00045743      -0.00025239      -0.00067091
C        8.90736513       5.13784369      19.97801684      -0.00046029      -0.00025380       0.00067599
C        8.63528120       6.42671003      22.05084671      -0.00045938       0.00022978       0.00003318
C        9.83204204       7.09925494      22.40875678       0.00024442       0.00023834      -0.00376848
C        8.63530102       6.42672280      19.29638240      -0.00046197       0.00022985      -0.00002898
C        9.83206332       7.09927020      18.93847922       0.00024514       0.00023906       0.00378553
C       12.29982678       8.51343321      22.46157131       0.00000126      -0.00038080      -0.00825901
C        8.61476729       0.71062623      22.40877431       0.00008619      -0.00033345      -0.00386182
C       12.29984920       8.51345063      18.88569538       0.00000123      -0.00038228       0.00828670
C        8.61478892       0.71064295      18.93840276       0.00008643      -0.00033451       0.00386929
C        8.63071065       2.08332357      22.05085779       0.00042873       0.00028735      -0.00002139
C        9.83027322       2.83991698      22.18212504      -0.00004799       0.00002905       0.00395667
C        8.63072840       2.08333579      19.29634001       0.00042853       0.00028786       0.00001848
C        9.83029300       2.83993101      19.16509943      -0.00004853       0.00002893      -0.00397240
C        9.88682501       4.25702207      22.05086360      -0.00003279      -0.00051139      -0.00000463
C       11.06818911       4.95625616      22.40878251       0.00033039       0.00009221      -0.00382204
C        9.88684389       4.25703617      19.29636184      -0.00003427      -0.00051302       0.00000502
C       11.06821001       4.95627198      18.93845018       0.00033151       0.00009234       0.00383520
C       11.07008651       6.38537467      22.46154175       0.00033050       0.00018968      -0.00823440
C       12.29927228       7.09440858      22.54028924       0.00000303      -0.00000033      -0.01009951
C       11.07010806       6.38539058      18.88569046       0.00033162       0.00019018       0.00826486
C       12.29929567       7.09442574      18.80695928       0.00000302      -0.00000056       0.01013396
