62
Lattice="9.552811731026456 -0.01779534415037258 -0.7253549694251054 4.7674446362213825 8.291562804755829 -0.5967812951458374 -3.699397488431067 -1.3768473227820637 45.19919734391139" Properties=species:S:1:pos:R:3:forces:R:3 energy=-489.35940148971764 stress="-1.7529966030885278e-07 1.4621963646899852e-08 -2.25391035876401e-08 1.4621963646899852e-08 -1.7297452589112982e-07 1.0935827180681144e-07 -2.25391035876401e-08 1.0935827180681144e-07 1.8293308306401975e-07" free_energy=-489.35940148971764 pbc="T T T"
C       -1.66543268      -0.62039468      20.80086179       0.00066420       0.00057461       0.00377243
C       -0.46741794       0.06872894      20.65252214       0.00035418       0.00057226       0.00233862
C       -1.42927965      -0.53340656      17.52325105       0.00093279       0.00030702       0.00377992
C       -0.24489483       0.15404763      17.31980674       0.00064683       0.00014115       0.00192821
C        9.07126803       1.44059522      19.80081385      -0.00042953       0.00038337       0.00005741
C        0.72174093       2.14532105      20.36045368      -0.00068276       0.00011841      -0.00128645
C        9.29400234       1.52991290      16.54157691       0.00033938      -0.00003600      -0.00023696
C        0.93360689       2.22802961      17.01269309       0.00057878       0.00001176       0.00009373
C        0.70675182       3.52711923      20.27133907      -0.00106595      -0.00021184      -0.00419325
C        1.90820293       4.20810145      20.11077052       0.00002743      -0.00005697      -0.00038360
C        0.94429157       3.61476279      16.97671948       0.00014379      -0.00004495      -0.00088940
C        2.16246336       4.29795949      16.98127404       0.00063438       0.00031069       0.00251357
C       11.45442696       5.57228269      19.48396967      -0.00014409       0.00003968      -0.00076723
C        3.10537047       6.27821899      20.15344946       0.00089949       0.00033262       0.00366664
C       11.70982249       5.66790836      16.26868538       0.00052858       0.00036633       0.00329061
C        3.36209140       6.36774821      17.03160846       0.00066836       0.00047115       0.00401191
C        5.48923613       7.65335904      19.86657573       0.00016309       0.00012599       0.00139916
C        1.91588913       0.06397457      20.29045584      -0.00019537      -0.00010614      -0.00016283
C        5.71813378       7.73447975      16.61006600       0.00031655       0.00003803       0.00055541
C        2.13423736       0.13902109      16.94990655       0.00041819       0.00014431       0.00040309
C        1.91956687       1.45368996      20.18703887      -0.00030476      -0.00008799       0.00054092
C        3.09208128       2.13838024      19.83066075       0.00070091       0.00001979       0.00355691
C        2.13961902       1.53328056      16.92525248       0.00093684       0.00028538       0.00136487
C        3.35565645       2.23146868      17.01982162       0.00096139       0.00060442       0.00232530
C        3.08793210       3.52748908      19.77453637       0.00201673      -0.00000580       0.00501383
C        4.17827426       4.29424551      19.28815128       0.00456703      -0.00127673       0.00828085
C        3.36650007       3.61205376      17.14401345       0.00090695       0.00088589       0.00355322
C        4.39991159       4.34927697      17.81571026       0.00092856       0.00115941       0.00516544
C        4.27353939       5.58590556      19.84276883       0.00163629       0.00037611       0.00569508
C        5.46882567       6.25790740      19.69244475       0.00063123      -0.00007634       0.00196094
C        4.56595614       5.66538954      17.20866952       0.00051201       0.00036810       0.00288410
C        5.74489726       6.35384381      16.87340400      -0.00057022      -0.00031257      -0.00182195
C        3.10064575      -0.63800410      20.14897553      -0.00071650      -0.00037181      -0.00268731
C        4.28971472       0.06506561      19.98528338      -0.00001869      -0.00021332       0.00017436
C        3.33782957      -0.54785429      16.86276188       0.00006874      -0.00006890      -0.00084632
C        4.54170837       0.16178408      16.86886595       0.00048737       0.00021414       0.00150039
C        4.28934708       1.43748948      19.68511600       0.00093593       0.00039525       0.00409030
C        5.50732923       1.98892900      19.19043058       0.00093934       0.00175754       0.00582752
C        4.55352939       1.54278170      17.05558221       0.00094365       0.00052548       0.00252467
C        5.70636364       2.07711250      17.70858749       0.00105310       0.00069408       0.00407998
C        6.79736304       4.26453458      18.69422236      -0.00224738      -0.00109355      -0.00779378
C        7.03202594       4.36305918      17.24167350      -0.00484501      -0.00223371      -0.01038163
C        6.63867975       5.55509545      19.36611885      -0.00112878      -0.00074134      -0.00433289
C        7.84351360       6.25863183      19.50771015      -0.00120963      -0.00051997      -0.00616243
C        6.93698781       5.67178388      16.73039653      -0.00214070      -0.00102588      -0.00681624
C        8.10052551       6.35634158      16.36989320      -0.00128198      -0.00062655      -0.00448380
C       10.25004720       7.65822787      19.48029669      -0.00009342      -0.00002413      -0.00031752
C        6.68182092       0.06482449      20.04291575       0.00054187       0.00049495       0.00328456
C       10.50820929       7.75354466      16.27739922       0.00053572       0.00010706       0.00259985
C        6.93440914       0.16245289      16.93154344       0.00070477       0.00012665       0.00311314
C        6.66806443       1.43057412      19.77485798       0.00073046       0.00045868       0.00378369
C        7.85231658       2.12816505      19.66155512      -0.00037840       0.00031137      -0.00041464
C        6.93258954       1.55211006      17.14445628       0.00033413       0.00049415       0.00128742
C        8.11959551       2.23900032      16.84553275      -0.00084196      -0.00002450      -0.00344686
C        7.83028715       3.49706351      19.37663317      -0.00162010      -0.00067461      -0.00650434
C        9.04004124       4.18767099      19.51922452      -0.00154000      -0.00058317      -0.00786626
C        8.12158389       3.61789092      16.74404036      -0.00265922      -0.00085204      -0.00859596
C        9.29560527       4.28555530      16.37837480      -0.00134453      -0.00065945      -0.00525575
C        9.04817420       5.57375352      19.51356862      -0.00146502      -0.00056187      -0.00832978
C       10.25185150       6.26885196      19.52370327      -0.00083624      -0.00031650      -0.00445125
C        9.30239122       5.66900816      16.28413347      -0.00079746      -0.00039768      -0.00339140
C       10.50674552       6.36387510      16.24703746       0.00016866      -0.00001148       0.00140177
