62
Lattice="9.783585476887039 -0.0037096127158181644 3.449842143645698e-05 4.895177175439807 8.471012750353427 5.256365532913695e-05 0.00017604478456047394 0.0002077081822917505 50.29944638863963" Properties=species:S:1:pos:R:3:forces:R:3:energies:R:1 energy=-565.2255859375 stress="2.120270892191911e-06 4.469045222776913e-08 -4.8166350907763444e-09 4.469045222776913e-08 2.1972791728330776e-06 2.5979092210803856e-09 -4.8166350907763444e-09 2.5979092210803856e-09 -5.792105639557121e-07" free_energy=-565.2255859375 pbc="T T T"
C        0.00457638       0.00243940      23.01480863      -0.00002190       0.00001632       0.00165360      -9.21442413
C        1.22421240       0.70600233      22.95341793       0.00024264       0.00000396       0.00285405      -9.29205036
C        0.00460947       0.00246144      19.23677891       0.00000192       0.00001111      -0.00176991      -9.21441555
C        1.22424037       0.70602092      19.29833468       0.00025936       0.00000169      -0.00318869      -9.29207420
C       10.99484360       2.11991402      22.90671119      -0.00000791       0.00005800       0.00031929      -9.28017902
C        2.44598410       2.82025178      22.95318986       0.00016551      -0.00017290       0.00325022      -9.29205513
C       10.99487882       2.11992521      19.34511597      -0.00004119       0.00005993      -0.00061757      -9.28016758
C        2.44600877       2.82026592      19.29856591       0.00019484      -0.00017894      -0.00354961      -9.29207802
C        2.44657840       4.22826702      23.01448435      -0.00004795       0.00002820       0.00220167      -9.21440029
C        3.67875026       4.93606368      22.93417394       0.00058264      -0.00005761       0.00057934      -9.09305000
C        2.44660476       4.22827633      19.23712453      -0.00003343       0.00005565      -0.00229058      -9.21439171
C        3.67877975       4.93607591      19.31735928       0.00056694      -0.00003734      -0.00050294      -9.09307384
C       13.45569757       6.34775741      22.99994464      -0.00006543       0.00004952       0.00419881      -9.26541996
C        4.90177282       7.05245217      22.93441313       0.00028388      -0.00042491       0.00017476      -9.09306240
C       13.45573052       6.34777199      19.25162717      -0.00000769       0.00001938      -0.00411033      -9.26542377
C        4.90180478       7.05246939      19.31716875       0.00026941      -0.00043409      -0.00015891      -9.09308243
C        7.34002898       8.45605104      22.90635102       0.00016103      -0.00033783       0.00113376      -9.28010941
C        3.66605890       0.70508030      22.95274226      -0.00001933       0.00003603       0.00399798      -9.29205704
C        7.34005447       8.45607833      19.34548801       0.00013220      -0.00036660      -0.00141395      -9.28010082
C        3.66608224       0.70509785      19.29898873       0.00001713       0.00005041      -0.00426660      -9.29208088
C        3.68013438       2.12267616      22.90613308       0.00045867       0.00016672       0.00145019      -9.28007507
C        4.90029968       2.82650005      22.61254302      -0.00071204      -0.00034009      -0.00692797      -9.29201317
C        3.68014934       2.12268650      19.34560847       0.00049990       0.00020115      -0.00170237      -9.28006649
C        4.90032465       2.82651438      19.63906775      -0.00075343      -0.00035709       0.00693768      -9.29201126
C        4.86143918       4.24769877      22.53039689      -0.00061102       0.00004593      -0.00547867      -8.93986607
C        5.82233333       5.10897495      21.84348218      -0.00126210       0.00073022      -0.00202984      -8.66887856
C        4.86146747       4.24771342      19.72115331      -0.00062065       0.00005099       0.00564368      -8.93987751
C        5.82235032       5.10897790      20.40807457      -0.00130885       0.00076545       0.00217682      -8.66885471
C        6.08872342       6.37149089      22.53054659      -0.00034353       0.00062680      -0.00574960      -8.93995476
C        7.33948518       7.04744781      22.61274140      -0.00010110       0.00097388      -0.00729382      -9.29197025
C        6.08874943       6.37149784      19.72104754      -0.00034434       0.00067446       0.00587337      -8.93996334
C        7.33951072       7.04746035      19.63894268      -0.00012358       0.00095427       0.00731212      -9.29196835
C        4.88516560       0.00061058      23.01388173       0.00008911      -0.00007112       0.00313459      -9.21435070
C        6.11476479       0.71279968      22.93371085       0.00030373       0.00083347       0.00132319      -9.09295273
C        4.88518503       0.00063226      19.23768893       0.00009904      -0.00009123      -0.00317338      -9.21434593
C        6.11478893       0.71282260      19.31779389       0.00029449       0.00080672      -0.00124160      -9.09298038
C        6.11102585       2.08129114      22.53024091      -0.00009567      -0.00024617      -0.00522631      -8.93981361
C        7.33775001       2.48187908      21.84343360       0.00000008      -0.00109274      -0.00189799      -8.66867161
C        6.11105317       2.08130636      19.72129881      -0.00009680      -0.00025804       0.00537668      -8.93982887
C        7.33776047       2.48188750      20.40811632       0.00002500      -0.00113123       0.00206453      -8.66865063
C        8.85512561       5.10774479      21.84342421       0.00086180       0.00050002      -0.00178272      -8.66855526
C        8.85514288       5.10775535      20.40815868       0.00089023       0.00049642       0.00191975      -8.66853714
C        8.58968578       6.37059644      22.53030750       0.00015189       0.00021428      -0.00531521      -8.93987370
C        9.77726743       7.05067811      22.93368486      -0.00068101      -0.00073542       0.00142762      -9.09290028
C        8.58971284       6.37060569      19.72129612       0.00012399       0.00025013       0.00543030      -8.93989277
C        9.77728888       7.05069420      19.31790253      -0.00064240      -0.00073057      -0.00133656      -9.09293461
C       12.23183962       8.46942195      22.99965866       0.00004705       0.00025505       0.00473786      -9.26540184
C        8.55911117       0.71191442      22.93434155      -0.00023333       0.00068513       0.00024237      -9.09297180
C       12.23186704       8.46944713      19.25191682       0.00005276       0.00026134      -0.00463807      -9.26540565
C        8.55913996       0.71193726      19.31721734      -0.00024078       0.00067352      -0.00020958      -9.09299564
C        8.56394507       2.08037945      22.53065238       0.00048745      -0.00050098      -0.00612229      -8.94006348
C        9.77522830       2.82469199      22.61310201       0.00113687      -0.00071207      -0.00821979      -9.29187489
C        8.56396345       2.08039707      19.72093439       0.00047335      -0.00052947       0.00620741      -8.94007587
C        9.77525205       2.82470784      19.63858308       0.00115076      -0.00071013       0.00821018      -9.29187393
C        9.81529924       4.24579405      22.53056933       0.00055699      -0.00011435      -0.00592464      -8.94003582
C       10.99857845       4.93331650      22.93407516      -0.00086278      -0.00024172       0.00076377      -9.09290695
C        9.81532065       4.24581281      19.72103865       0.00055628      -0.00013110       0.00602716      -8.94005299
C       10.99860198       4.93332958      19.31751787      -0.00088096      -0.00022093      -0.00068099      -9.09294224
C       11.00636237       6.34872955      22.99944643      -0.00032803      -0.00021179       0.00512948      -9.26539516
C       12.23129213       7.05530243      23.06092336      -0.00012260       0.00004226       0.00747444      -9.37740040
C       11.00638486       6.34874426      19.25209549      -0.00034799      -0.00022304      -0.00503825      -9.26539230
C       12.23132114       7.05532138      19.19062851      -0.00017778       0.00005850      -0.00736989      -9.37744904
