62
Lattice="9.795472477201736 -0.0033352748332221 -5.323996271e-07 4.901452904037169 8.481562066922892 8.3920420373e-06 -2.6674101863e-06 5.12442720885e-05 49.95175233372823" Properties=species:S:1:pos:R:3:forces:R:3:energies:R:1 energy=-565.218505859375 stress="0.0004699943237937987 1.4162937077344395e-05 -1.689557223016891e-07 1.4162937077344395e-05 0.0004658300895243883 -1.5204285830350273e-07 -1.689557223016891e-07 -1.5204285830350273e-07 -0.00022931759303901345" free_energy=-565.218505859375 pbc="T T T"
C        0.00522786       0.00278065      22.85368810      -0.01421798      -0.01039287       0.01458285      -9.21672249
C        1.22600280       0.70713056      22.79211293      -0.00602872      -0.00154180       0.01256780      -9.29684639
C        0.00525921       0.00280682      19.10590213      -0.01297853      -0.00989384      -0.01492096      -9.21674919
C        1.22605351       0.70716071      19.16767883      -0.00724819      -0.00178090      -0.01310738      -9.29678631
C       11.00943992       2.12209131      22.74680398      -0.01481446       0.01245425       0.01059365      -9.27956581
C        2.44888077       2.82334060      22.79175293      -0.00228417      -0.00517202       0.01276015      -9.29693794
C       11.00946643       2.12213279      19.21296365      -0.01282036       0.01020398      -0.01133122      -9.27972031
C        2.44891080       2.82333485      19.16801443      -0.00209309      -0.00223865      -0.01333144      -9.29686356
C        2.44966589       4.23247527      22.85314090       0.00105238       0.03159758       0.01548970      -9.21645832
C        3.68181009       4.94204620      22.77443169      -0.02328841       0.00228890       0.01977042      -9.09446049
C        2.44969908       4.23252616      19.10640948       0.00145509       0.02816757      -0.01576242      -9.21652985
C        3.68182599       4.94206274      19.18496026      -0.02092749       0.00293374      -0.01934847      -9.09447765
C       13.47153114       6.35630884      22.83902063       0.01347709      -0.00182654       0.00182994      -9.26700306
C        4.90734505       7.06263223      22.77481351      -0.01997868       0.01011481       0.01896814      -9.09436512
C       13.47160309       6.35633774      19.12033461       0.01112091      -0.00225316      -0.00201490      -9.26703358
C        4.90736696       7.06266841      19.18462285      -0.01781365       0.00927433      -0.01858055      -9.09439373
C        7.34907945       8.46828367      22.74615002       0.00521353      -0.02176499       0.01167968      -9.27963829
C        3.67002272       0.70624052      22.79106017      -0.00403560       0.00054211       0.01401272      -9.29683018
C        7.34912557       8.46830175      19.21360897       0.00405886      -0.01968569      -0.01234840      -9.27980995
C        3.67001163       0.70628466      19.16868134       0.00009510      -0.00143873      -0.01458841      -9.29677105
C        3.68302491       2.12449438      22.74587592       0.02197664       0.01170319       0.01151238      -9.27945518
C        4.90536854       2.82953324      22.46051704       0.01206505       0.00500463       0.00019942      -9.29772854
C        3.68306173       2.12451405      19.21385540       0.01963433       0.01106212      -0.01229463      -9.27963829
C        4.90537969       2.82954697      19.49894808       0.01477611       0.00613435       0.00066330      -9.29776669
C        4.86485852       4.25203072      22.37855375       0.04397860      -0.02563584       0.01183446      -8.93867683
C        5.82859440       5.11590189      21.69603768       0.01865797      -0.01257062      -0.02378908      -8.65280342
C        4.86493042       4.25205806      19.58081410       0.04193527      -0.02640104      -0.01235838      -8.93862724
C        5.82863580       5.11589776      20.26330932       0.01908867      -0.01238721       0.02466089      -8.65283871
C        6.09584098       6.38200469      22.37880735       0.04664119      -0.01989061       0.01268990      -8.93886662
C        7.34863405       7.05724298      22.46083786      -0.00028716      -0.01533270      -0.00140272      -9.29758739
C        6.09590259       6.38199300      19.58059644       0.04562554      -0.01845264      -0.01307672      -8.93882942
C        7.34866993       7.05727972      19.49865969       0.00027621      -0.01783133       0.00220209      -9.29764462
C        4.89015777       0.00124729      22.85224164       0.02432917      -0.01449446       0.01675400      -9.21642303
C        6.12119780       0.71239841      22.77368246      -0.00605299      -0.02140726       0.02162259      -9.09444904
C        4.89022548       0.00125853      19.10726561       0.02031343      -0.01236591      -0.01689819      -9.21646404
C        6.12121391       0.71241325      19.18567883      -0.00412638      -0.01957005      -0.02114163      -9.09450912
C        6.11624385       2.08198377      22.37829249      -0.00201073       0.05485512       0.01202340      -8.93852043
C        7.34660230       2.48375880      21.69592857      -0.00014097       0.02398738      -0.02233967      -8.65221310
C        6.11630387       2.08203229      19.58107694      -0.00399277       0.05381624      -0.01257467      -8.93846035
C        7.34661374       2.48379366      20.26343131       0.00050208       0.02422730       0.02309120      -8.65225315
C        8.86726291       5.11506732      21.69589192      -0.02141103      -0.01395359      -0.02421367      -8.65194321
C        8.86728545       5.11508228      20.26346525      -0.02160065      -0.01390932       0.02504817      -8.65201950
C        8.60099571       6.38152833      22.37839379      -0.04932614      -0.02329585       0.01254934      -8.93878269
C        9.79012613       7.06118530      22.77357125       0.01989841       0.01419594       0.02241994      -9.09407234
C        8.60103551       6.38152331      19.58100565      -0.04917258      -0.02155989      -0.01299037      -8.93875885
C        9.79017348       7.06123242      19.18581551       0.01901007       0.01216385      -0.02202827      -9.09416580
C       12.24692836       8.47921807      22.83851143       0.00353041       0.01312868       0.00276033      -9.26690388
C        8.57038776       0.71166326      22.77472045      -0.00184901      -0.01936609       0.01913594      -9.09427547
C       12.24698382       8.47928877      19.12082937       0.00211494       0.01014162      -0.00292669      -9.26690674
C        8.57042212       0.71166986      19.18470075      -0.00133679      -0.01656383      -0.01864269      -9.09431839
C        8.57625409       2.08141307      22.37911309       0.00561300       0.05098770       0.01084316      -8.93898201
C        9.78771090       2.82814437      22.46158640      -0.01093414       0.00465493      -0.00279403      -9.29753304
C        8.57627540       2.08147999      19.58030284       0.00600007       0.04906427      -0.01130392      -8.93892002
C        9.78776146       2.82815595      19.49793001      -0.01300064       0.00682063       0.00362545      -9.29759884
C        9.82992596       4.25051862      22.37895761      -0.04339902      -0.02773091       0.01049866      -8.93903065
C       11.01373970       4.93967884      22.77422294       0.02166976       0.00517558       0.02085906      -9.09400082
C        9.82993678       4.25056284      19.58045536      -0.04152741      -0.02870923      -0.01112124      -8.93898106
C       11.01380811       4.93970142      19.18518215       0.01885445       0.00575272      -0.02044354      -9.09407043
C       11.02092389       6.35739943      22.83816242      -0.02029288      -0.00912048       0.00262875      -9.26701069
C       12.24643242       7.06427558      22.90020372       0.00231739       0.00292284      -0.01033166      -9.38075924
C       11.02095113       6.35742611      19.12116102      -0.01930822      -0.00914211      -0.00253763      -9.26703072
C       12.24647032       7.06429441      19.05911908       0.00301575       0.00430285       0.01066624      -9.38070774
