  62  62   0   0
  0.6670944E+02  0.9778063E-09  0.9779165E-09  0.4973196E-08  0.5000000E-15
  1.000000000000000E-004
  CAR 
 unknown system                          
      5.19393856    -24.21909020  301     -3.40937235      1.00000000
    -24.219  0.0000E+00  0.0000E+00  0.0000E+00  0.0000E+00
    -24.121  0.0000E+00  0.0000E+00  0.0000E+00  0.0000E+00
    -24.023  0.0000E+00  0.0000E+00  0.0000E+00  0.0000E+00
    -23.925  0.0000E+00  0.0000E+00  0.0000E+00  0.0000E+00
    -23.827  0.0000E+00  0.0000E+00  0.0000E+00  0.0000E+00
    -23.729  0.0000E+00  0.0000E+00  0.0000E+00  0.0000E+00
    -23.631  0.0000E+00  0.0000E+00  0.0000E+00  0.0000E+00
    -23.533  0.0000E+00  0.0000E+00  0.0000E+00  0.0000E+00
    -23.435  0.0000E+00  0.0000E+00  0.0000E+00  0.0000E+00
    -23.337  0.0000E+00  0.0000E+00  0.0000E+00  0.0000E+00
    -23.239  0.0000E+00  0.0000E+00  0.0000E+00  0.0000E+00
    -23.141  0.0000E+00  0.0000E+00  0.0000E+00  0.0000E+00
    -23.043  0.0000E+00  0.0000E+00  0.0000E+00  0.0000E+00
    -22.945  0.0000E+00  0.0000E+00  0.0000E+00  0.0000E+00
    -22.846  0.2779E+01  0.2779E+01  0.4955E-01  0.4955E-01
    -22.748  0.2813E+01  0.2813E+01  0.3168E+00  0.3168E+00
    -22.650  0.5052E+01  0.5052E+01  0.6682E+00  0.6682E+00
    -22.552  0.1468E+01  0.1468E+01  0.9869E+00  0.9869E+00
    -22.454  0.2841E+01  0.2841E+01  0.1155E+01  0.1155E+01
    -22.356  0.0000E+00  0.0000E+00  0.2000E+01  0.2000E+01
    -22.258  0.4744E+01  0.4744E+01  0.2205E+01  0.2205E+01
    -22.160  0.4424E+01  0.4424E+01  0.2706E+01  0.2706E+01
    -22.062  0.6507E+01  0.6507E+01  0.3190E+01  0.3190E+01
    -21.964  0.4745E+01  0.4745E+01  0.3821E+01  0.3821E+01
    -21.866  0.3612E+01  0.3612E+01  0.4223E+01  0.4223E+01
    -21.768  0.2978E+01  0.2978E+01  0.4567E+01  0.4567E+01
    -21.670  0.4282E+01  0.4282E+01  0.4962E+01  0.4962E+01
    -21.572  0.6296E+01  0.6296E+01  0.5558E+01  0.5558E+01
    -21.474  0.1840E+01  0.1840E+01  0.5933E+01  0.5933E+01
    -21.376  0.9290E+01  0.9290E+01  0.6375E+01  0.6375E+01
    -21.278  0.0000E+00  0.0000E+00  0.7000E+01  0.7000E+01
    -21.180  0.2467E+01  0.2467E+01  0.7064E+01  0.7064E+01
    -21.082  0.5298E+01  0.5298E+01  0.7702E+01  0.7702E+01
    -20.984  0.4338E+01  0.4338E+01  0.8136E+01  0.8136E+01
    -20.886  0.4323E+01  0.4323E+01  0.8555E+01  0.8555E+01
    -20.788  0.6704E+01  0.6704E+01  0.9206E+01  0.9206E+01
    -20.690  0.3211E+01  0.3211E+01  0.9722E+01  0.9722E+01
    -20.591  0.6768E+01  0.6768E+01  0.1041E+02  0.1041E+02
    -20.493  0.3170E+01  0.3170E+01  0.1075E+02  0.1075E+02
    -20.395  0.5805E+01  0.5805E+01  0.1111E+02  0.1111E+02
    -20.297  0.4872E+01  0.4872E+01  0.1166E+02  0.1166E+02
    -20.199  0.4317E+01  0.4317E+01  0.1207E+02  0.1207E+02
    -20.101  0.3443E+01  0.3443E+01  0.1255E+02  0.1255E+02
    -20.003  0.3815E+01  0.3815E+01  0.1316E+02  0.1316E+02
    -19.905  0.3724E+01  0.3724E+01  0.1349E+02  0.1349E+02
    -19.807  0.2594E+01  0.2594E+01  0.1393E+02  0.1393E+02
    -19.709  0.4502E+01  0.4502E+01  0.1431E+02  0.1431E+02
    -19.611  0.4451E+01  0.4451E+01  0.1480E+02  0.1480E+02
    -19.513  0.7575E+01  0.7575E+01  0.1548E+02  0.1548E+02
    -19.415  0.4530E+01  0.4530E+01  0.1604E+02  0.1604E+02
    -19.317  0.3654E+01  0.3654E+01  0.1642E+02  0.1642E+02
    -19.219  0.5845E+01  0.5845E+01  0.1684E+02  0.1684E+02
    -19.121  0.3046E+01  0.3046E+01  0.1724E+02  0.1724E+02
    -19.023  0.5819E+01  0.5819E+01  0.1786E+02  0.1786E+02
    -18.925  0.5865E+01  0.5865E+01  0.1837E+02  0.1837E+02
    -18.827  0.5198E+01  0.5198E+01  0.1891E+02  0.1891E+02
    -18.729  0.7258E+01  0.7258E+01  0.1945E+02  0.1945E+02
    -18.631  0.6511E+01  0.6511E+01  0.2009E+02  0.2009E+02
    -18.533  0.5005E+01  0.5005E+01  0.2062E+02  0.2062E+02
    -18.435  0.4906E+01  0.4906E+01  0.2113E+02  0.2113E+02
    -18.336  0.4257E+01  0.4257E+01  0.2159E+02  0.2159E+02
    -18.238  0.6456E+01  0.6456E+01  0.2210E+02  0.2210E+02
    -18.140  0.5805E+01  0.5805E+01  0.2265E+02  0.2265E+02
    -18.042  0.2694E+01  0.2694E+01  0.2301E+02  0.2301E+02
    -17.944  0.6452E+01  0.6452E+01  0.2343E+02  0.2343E+02
    -17.846  0.9791E+01  0.9791E+01  0.2426E+02  0.2426E+02
    -17.748  0.4614E+01  0.4614E+01  0.2501E+02  0.2501E+02
    -17.650  0.5304E+01  0.5304E+01  0.2538E+02  0.2538E+02
    -17.552  0.4288E+01  0.4288E+01  0.2591E+02  0.2591E+02
    -17.454  0.6074E+01  0.6074E+01  0.2641E+02  0.2641E+02
    -17.356  0.5031E+01  0.5031E+01  0.2708E+02  0.2708E+02
    -17.258  0.6448E+01  0.6448E+01  0.2758E+02  0.2758E+02
    -17.160  0.3856E+01  0.3856E+01  0.2804E+02  0.2804E+02
    -17.062  0.3597E+01  0.3597E+01  0.2839E+02  0.2839E+02
    -16.964  0.3942E+01  0.3942E+01  0.2875E+02  0.2875E+02
    -16.866  0.2967E+01  0.2967E+01  0.2925E+02  0.2925E+02
    -16.768  0.3570E+01  0.3570E+01  0.2957E+02  0.2957E+02
    -16.670  0.4678E+01  0.4678E+01  0.2990E+02  0.2990E+02
    -16.572  0.3398E+01  0.3398E+01  0.3029E+02  0.3029E+02
    -16.474  0.3750E+01  0.3750E+01  0.3065E+02  0.3065E+02
    -16.376  0.3404E+01  0.3404E+01  0.3096E+02  0.3096E+02
    -16.278  0.2861E+01  0.2861E+01  0.3125E+02  0.3125E+02
    -16.180  0.3439E+01  0.3439E+01  0.3156E+02  0.3156E+02
    -16.081  0.5562E+01  0.5562E+01  0.3198E+02  0.3198E+02
    -15.983  0.3309E+01  0.3309E+01  0.3231E+02  0.3231E+02
    -15.885  0.4967E+01  0.4967E+01  0.3286E+02  0.3286E+02
    -15.787  0.6170E+01  0.6170E+01  0.3337E+02  0.3337E+02
    -15.689  0.6813E+01  0.6813E+01  0.3414E+02  0.3414E+02
    -15.591  0.7075E+01  0.7075E+01  0.3485E+02  0.3485E+02
    -15.493  0.8463E+01  0.8463E+01  0.3554E+02  0.3554E+02
    -15.395  0.6189E+01  0.6189E+01  0.3617E+02  0.3617E+02
    -15.297  0.7335E+01  0.7335E+01  0.3681E+02  0.3681E+02
    -15.199  0.4431E+01  0.4431E+01  0.3739E+02  0.3739E+02
    -15.101  0.6502E+01  0.6502E+01  0.3772E+02  0.3772E+02
    -15.003  0.3708E+01  0.3708E+01  0.3831E+02  0.3831E+02
    -14.905  0.4623E+01  0.4623E+01  0.3871E+02  0.3871E+02
    -14.807  0.5730E+01  0.5730E+01  0.3924E+02  0.3924E+02
    -14.709  0.4667E+01  0.4667E+01  0.3974E+02  0.3974E+02
    -14.611  0.5839E+01  0.5839E+01  0.4027E+02  0.4027E+02
    -14.513  0.5137E+01  0.5137E+01  0.4085E+02  0.4085E+02
    -14.415  0.4212E+01  0.4212E+01  0.4134E+02  0.4134E+02
    -14.317  0.4027E+01  0.4027E+01  0.4183E+02  0.4183E+02
    -14.219  0.4931E+01  0.4931E+01  0.4227E+02  0.4227E+02
    -14.121  0.4203E+01  0.4203E+01  0.4286E+02  0.4286E+02
    -14.023  0.3714E+01  0.3714E+01  0.4324E+02  0.4324E+02
    -13.925  0.5838E+01  0.5838E+01  0.4384E+02  0.4384E+02
    -13.826  0.3948E+01  0.3948E+01  0.4447E+02  0.4447E+02
    -13.728  0.2164E+01  0.2164E+01  0.4476E+02  0.4476E+02
    -13.630  0.4325E-01  0.4325E-01  0.4500E+02  0.4500E+02
    -13.532  0.3669E+01  0.3669E+01  0.4528E+02  0.4528E+02
    -13.434  0.5508E+01  0.5508E+01  0.4577E+02  0.4577E+02
    -13.336  0.5172E+01  0.5172E+01  0.4629E+02  0.4629E+02
    -13.238  0.6163E+01  0.6163E+01  0.4683E+02  0.4683E+02
    -13.140  0.6312E+01  0.6312E+01  0.4741E+02  0.4741E+02
    -13.042  0.7849E+01  0.7849E+01  0.4820E+02  0.4820E+02
    -12.944  0.5648E+01  0.5648E+01  0.4883E+02  0.4883E+02
    -12.846  0.6672E+01  0.6672E+01  0.4947E+02  0.4947E+02
    -12.748  0.6608E+01  0.6608E+01  0.5019E+02  0.5019E+02
    -12.650  0.8237E+01  0.8237E+01  0.5086E+02  0.5086E+02
    -12.552  0.5460E+01  0.5460E+01  0.5146E+02  0.5146E+02
    -12.454  0.4951E+01  0.4951E+01  0.5200E+02  0.5200E+02
    -12.356  0.6157E+01  0.6157E+01  0.5250E+02  0.5250E+02
    -12.258  0.4070E+01  0.4070E+01  0.5292E+02  0.5292E+02
    -12.160  0.5072E+01  0.5072E+01  0.5343E+02  0.5343E+02
    -12.062  0.4951E+01  0.4951E+01  0.5403E+02  0.5403E+02
    -11.964  0.7610E+01  0.7610E+01  0.5473E+02  0.5473E+02
    -11.866  0.6159E+01  0.6159E+01  0.5544E+02  0.5544E+02
    -11.768  0.8321E+01  0.8321E+01  0.5609E+02  0.5609E+02
    -11.670  0.7565E+01  0.7565E+01  0.5684E+02  0.5684E+02
    -11.571  0.1341E+02  0.1341E+02  0.5766E+02  0.5766E+02
    -11.473  0.5853E+01  0.5853E+01  0.5835E+02  0.5835E+02
    -11.375  0.5920E+01  0.5920E+01  0.5893E+02  0.5893E+02
    -11.277  0.2977E+01  0.2977E+01  0.5977E+02  0.5977E+02
    -11.179  0.4849E+01  0.4849E+01  0.6025E+02  0.6025E+02
    -11.081  0.1266E+02  0.1266E+02  0.6098E+02  0.6098E+02
    -10.983  0.1076E+02  0.1076E+02  0.6178E+02  0.6178E+02
    -10.885  0.1123E+02  0.1123E+02  0.6301E+02  0.6301E+02
    -10.787  0.8873E+01  0.8873E+01  0.6441E+02  0.6441E+02
    -10.689  0.9411E+01  0.9411E+01  0.6507E+02  0.6507E+02
    -10.591  0.8682E+01  0.8682E+01  0.6626E+02  0.6626E+02
    -10.493  0.8925E+01  0.8925E+01  0.6713E+02  0.6713E+02
    -10.395  0.1044E+02  0.1044E+02  0.6786E+02  0.6786E+02
    -10.297  0.9501E+01  0.9501E+01  0.6867E+02  0.6867E+02
    -10.199  0.1380E+02  0.1380E+02  0.6977E+02  0.6977E+02
    -10.101  0.1111E+02  0.1111E+02  0.7109E+02  0.7109E+02
    -10.003  0.1535E+02  0.1535E+02  0.7245E+02  0.7245E+02
     -9.905  0.1520E+02  0.1520E+02  0.7347E+02  0.7347E+02
     -9.807  0.1393E+02  0.1393E+02  0.7523E+02  0.7523E+02
     -9.709  0.8775E+01  0.8775E+01  0.7645E+02  0.7645E+02
     -9.611  0.8576E+01  0.8576E+01  0.7786E+02  0.7786E+02
     -9.513  0.1382E+02  0.1382E+02  0.7921E+02  0.7921E+02
     -9.415  0.1737E+02  0.1737E+02  0.8064E+02  0.8064E+02
     -9.316  0.8994E+01  0.8994E+01  0.8214E+02  0.8214E+02
     -9.218  0.1210E+02  0.1210E+02  0.8309E+02  0.8309E+02
     -9.120  0.1279E+02  0.1279E+02  0.8437E+02  0.8437E+02
     -9.022  0.1741E+02  0.1741E+02  0.8584E+02  0.8584E+02
     -8.924  0.1174E+02  0.1174E+02  0.8681E+02  0.8681E+02
     -8.826  0.1568E+02  0.1568E+02  0.8798E+02  0.8798E+02
     -8.728  0.9076E+01  0.9076E+01  0.8911E+02  0.8911E+02
     -8.630  0.1000E+02  0.1000E+02  0.9010E+02  0.9010E+02
     -8.532  0.9104E+01  0.9104E+01  0.9097E+02  0.9097E+02
     -8.434  0.7202E+01  0.7202E+01  0.9180E+02  0.9180E+02
     -8.336  0.1162E+02  0.1162E+02  0.9295E+02  0.9295E+02
     -8.238  0.1282E+02  0.1282E+02  0.9415E+02  0.9415E+02
     -8.140  0.9025E+01  0.9025E+01  0.9521E+02  0.9521E+02
     -8.042  0.7422E+01  0.7422E+01  0.9599E+02  0.9599E+02
     -7.944  0.4926E+01  0.4926E+01  0.9661E+02  0.9661E+02
     -7.846  0.9583E+01  0.9583E+01  0.9731E+02  0.9731E+02
     -7.748  0.1565E+02  0.1565E+02  0.9846E+02  0.9846E+02
     -7.650  0.1248E+02  0.1248E+02  0.9952E+02  0.9952E+02
     -7.552  0.4494E+01  0.4494E+01  0.1003E+03  0.1003E+03
     -7.454  0.3360E+01  0.3360E+01  0.1009E+03  0.1009E+03
     -7.356  0.1463E+02  0.1463E+02  0.1014E+03  0.1014E+03
     -7.258  0.2787E+02  0.2787E+02  0.1023E+03  0.1023E+03
     -7.160  0.1160E+02  0.1160E+02  0.1032E+03  0.1032E+03
     -7.061  0.8601E+01  0.8601E+01  0.1041E+03  0.1041E+03
     -6.963  0.1085E+02  0.1085E+02  0.1051E+03  0.1051E+03
     -6.865  0.6655E+01  0.6655E+01  0.1060E+03  0.1060E+03
     -6.767  0.8269E+01  0.8269E+01  0.1069E+03  0.1069E+03
     -6.669  0.2979E+02  0.2979E+02  0.1079E+03  0.1079E+03
     -6.571  0.1032E+02  0.1032E+02  0.1090E+03  0.1090E+03
     -6.473  0.3850E+01  0.3850E+01  0.1095E+03  0.1095E+03
     -6.375  0.3856E+01  0.3856E+01  0.1099E+03  0.1099E+03
     -6.277  0.3673E+01  0.3673E+01  0.1103E+03  0.1103E+03
     -6.179  0.4463E+01  0.4463E+01  0.1107E+03  0.1107E+03
     -6.081  0.4413E+01  0.4413E+01  0.1113E+03  0.1113E+03
     -5.983  0.1036E+02  0.1036E+02  0.1121E+03  0.1121E+03
     -5.885  0.2882E+01  0.2882E+01  0.1130E+03  0.1130E+03
     -5.787  0.3523E+01  0.3523E+01  0.1137E+03  0.1137E+03
     -5.689  0.5356E+01  0.5356E+01  0.1143E+03  0.1143E+03
     -5.591  0.6241E+01  0.6241E+01  0.1148E+03  0.1148E+03
     -5.493  0.1116E+02  0.1116E+02  0.1155E+03  0.1155E+03
     -5.395  0.4754E+01  0.4754E+01  0.1162E+03  0.1162E+03
     -5.297  0.4286E+01  0.4286E+01  0.1169E+03  0.1169E+03
     -5.199  0.4277E+01  0.4277E+01  0.1174E+03  0.1174E+03
     -5.101  0.4489E+01  0.4489E+01  0.1178E+03  0.1178E+03
     -5.003  0.8489E+01  0.8489E+01  0.1185E+03  0.1185E+03
     -4.905  0.5836E+01  0.5836E+01  0.1190E+03  0.1190E+03
     -4.806  0.4621E+01  0.4621E+01  0.1196E+03  0.1196E+03
     -4.708  0.2774E+01  0.2774E+01  0.1202E+03  0.1202E+03
     -4.610  0.2747E+01  0.2747E+01  0.1204E+03  0.1204E+03
     -4.512  0.4882E+01  0.4882E+01  0.1208E+03  0.1208E+03
     -4.414  0.6751E+01  0.6751E+01  0.1214E+03  0.1214E+03
     -4.316  0.3821E+01  0.3821E+01  0.1219E+03  0.1219E+03
     -4.218  0.3864E+01  0.3864E+01  0.1222E+03  0.1222E+03
     -4.120  0.3425E+01  0.3425E+01  0.1226E+03  0.1226E+03
     -4.022  0.1811E+01  0.1811E+01  0.1229E+03  0.1229E+03
     -3.924  0.3696E+01  0.3696E+01  0.1231E+03  0.1231E+03
     -3.826  0.1070E+01  0.1070E+01  0.1234E+03  0.1234E+03
     -3.728  0.1609E+01  0.1609E+01  0.1235E+03  0.1235E+03
     -3.630  0.1991E+01  0.1991E+01  0.1237E+03  0.1237E+03
     -3.532  0.1504E+01  0.1504E+01  0.1239E+03  0.1239E+03
     -3.434  0.4636E+00  0.4636E+00  0.1240E+03  0.1240E+03
     -3.336  0.0000E+00  0.0000E+00  0.1240E+03  0.1240E+03
     -3.238  0.0000E+00  0.0000E+00  0.1240E+03  0.1240E+03
     -3.140  0.2179E+01  0.2179E+01  0.1240E+03  0.1240E+03
     -3.042  0.4503E+01  0.4503E+01  0.1244E+03  0.1244E+03
     -2.944  0.2514E+01  0.2514E+01  0.1248E+03  0.1248E+03
     -2.846  0.0000E+00  0.0000E+00  0.1250E+03  0.1250E+03
     -2.748  0.1697E+01  0.1697E+01  0.1251E+03  0.1251E+03
     -2.650  0.1985E+01  0.1985E+01  0.1253E+03  0.1253E+03
     -2.551  0.7794E+01  0.7794E+01  0.1257E+03  0.1257E+03
     -2.453  0.4846E+01  0.4846E+01  0.1264E+03  0.1264E+03
     -2.355  0.3680E+01  0.3680E+01  0.1267E+03  0.1267E+03
     -2.257  0.3039E+01  0.3039E+01  0.1271E+03  0.1271E+03
     -2.159  0.2436E+01  0.2436E+01  0.1274E+03  0.1274E+03
     -2.061  0.7512E+01  0.7512E+01  0.1279E+03  0.1279E+03
     -1.963  0.5033E+01  0.5033E+01  0.1284E+03  0.1284E+03
     -1.865  0.4933E+01  0.4933E+01  0.1290E+03  0.1290E+03
     -1.767  0.4881E+01  0.4881E+01  0.1295E+03  0.1295E+03
     -1.669  0.1112E+01  0.1112E+01  0.1296E+03  0.1296E+03
     -1.571  0.3173E+01  0.3173E+01  0.1303E+03  0.1303E+03
     -1.473  0.4759E+01  0.4759E+01  0.1307E+03  0.1307E+03
     -1.375  0.1135E+02  0.1135E+02  0.1313E+03  0.1313E+03
     -1.277  0.4840E+01  0.4840E+01  0.1321E+03  0.1321E+03
     -1.179  0.4906E+01  0.4906E+01  0.1326E+03  0.1326E+03
     -1.081  0.3204E+01  0.3204E+01  0.1332E+03  0.1332E+03
     -0.983  0.8410E+01  0.8410E+01  0.1336E+03  0.1336E+03
     -0.885  0.7606E+01  0.7606E+01  0.1343E+03  0.1343E+03
     -0.787  0.6874E+01  0.6874E+01  0.1349E+03  0.1349E+03
     -0.689  0.3365E+01  0.3365E+01  0.1354E+03  0.1354E+03
     -0.591  0.5891E+01  0.5891E+01  0.1358E+03  0.1358E+03
     -0.493  0.5753E+01  0.5753E+01  0.1364E+03  0.1364E+03
     -0.395  0.4551E+01  0.4551E+01  0.1369E+03  0.1369E+03
     -0.296  0.4369E+01  0.4369E+01  0.1373E+03  0.1373E+03
     -0.198  0.2743E+01  0.2743E+01  0.1377E+03  0.1377E+03
     -0.100  0.3712E+01  0.3712E+01  0.1380E+03  0.1380E+03
     -0.002  0.4077E+01  0.4077E+01  0.1384E+03  0.1384E+03
      0.096  0.7190E+01  0.7190E+01  0.1389E+03  0.1389E+03
      0.194  0.4448E+01  0.4448E+01  0.1395E+03  0.1395E+03
      0.292  0.3914E+01  0.3915E+01  0.1398E+03  0.1398E+03
      0.390  0.2050E+01  0.2050E+01  0.1403E+03  0.1403E+03
      0.488  0.5409E+01  0.5453E+01  0.1406E+03  0.1406E+03
      0.586  0.7327E+01  0.7329E+01  0.1411E+03  0.1411E+03
      0.684  0.7379E+01  0.7404E+01  0.1418E+03  0.1418E+03
      0.782  0.6731E+01  0.6794E+01  0.1426E+03  0.1426E+03
      0.880  0.3207E+01  0.3205E+01  0.1432E+03  0.1432E+03
      0.978  0.7978E+01  0.8438E+01  0.1437E+03  0.1437E+03
      1.076  0.4711E+01  0.4712E+01  0.1445E+03  0.1445E+03
      1.174  0.8772E+01  0.8734E+01  0.1452E+03  0.1452E+03
      1.272  0.2780E+01  0.2666E+01  0.1460E+03  0.1460E+03
      1.370  0.7559E+01  0.7634E+01  0.1468E+03  0.1468E+03
      1.468  0.1215E+02  0.1471E+02  0.1481E+03  0.1481E+03
      1.566  0.9208E+01  0.1019E+02  0.1493E+03  0.1492E+03
      1.664  0.1317E+02  0.1289E+02  0.1502E+03  0.1502E+03
      1.762  0.1427E+02  0.1278E+02  0.1517E+03  0.1516E+03
      1.860  0.1609E+02  0.1754E+02  0.1530E+03  0.1530E+03
      1.959  0.7847E+01  0.9542E+01  0.1547E+03  0.1547E+03
      2.057  0.1299E+02  0.1239E+02  0.1563E+03  0.1563E+03
      2.155  0.1861E+02  0.1751E+02  0.1575E+03  0.1575E+03
      2.253  0.2252E+02  0.1954E+02  0.1595E+03  0.1594E+03
      2.351  0.2829E+02  0.3455E+02  0.1615E+03  0.1615E+03
      2.449  0.1741E+02  0.1712E+02  0.1636E+03  0.1636E+03
      2.547  0.1119E+02  0.1118E+02  0.1650E+03  0.1650E+03
      2.645  0.1652E+02  0.1662E+02  0.1665E+03  0.1665E+03
      2.743  0.2201E+02  0.1961E+02  0.1684E+03  0.1684E+03
      2.841  0.2888E+02  0.3168E+02  0.1703E+03  0.1703E+03
      2.939  0.2385E+02  0.2389E+02  0.1728E+03  0.1728E+03
      3.037  0.2638E+02  0.2599E+02  0.1753E+03  0.1753E+03
      3.135  0.1041E+02  0.1033E+02  0.1773E+03  0.1773E+03
      3.233  0.2555E+02  0.2613E+02  0.1796E+03  0.1795E+03
      3.331  0.5740E+01  0.5914E+01  0.1809E+03  0.1809E+03
      3.429  0.1337E+02  0.1281E+02  0.1833E+03  0.1833E+03
      3.527  0.2241E+02  0.2413E+02  0.1856E+03  0.1855E+03
      3.625  0.1572E+02  0.1415E+02  0.1878E+03  0.1878E+03
      3.723  0.1749E+02  0.1620E+02  0.1903E+03  0.1903E+03
      3.821  0.8203E+01  0.8293E+01  0.1917E+03  0.1917E+03
      3.919  0.0000E+00  0.0000E+00  0.1920E+03  0.1920E+03
      4.017  0.0000E+00  0.0000E+00  0.1920E+03  0.1920E+03
      4.115  0.0000E+00  0.0000E+00  0.1920E+03  0.1920E+03
      4.214  0.0000E+00  0.0000E+00  0.1920E+03  0.1920E+03
      4.312  0.0000E+00  0.0000E+00  0.1920E+03  0.1920E+03
      4.410  0.0000E+00  0.0000E+00  0.1920E+03  0.1920E+03
      4.508  0.0000E+00  0.0000E+00  0.1920E+03  0.1920E+03
      4.606  0.0000E+00  0.0000E+00  0.1920E+03  0.1920E+03
      4.704  0.0000E+00  0.0000E+00  0.1920E+03  0.1920E+03
      4.802  0.0000E+00  0.0000E+00  0.1920E+03  0.1920E+03
      4.900  0.0000E+00  0.0000E+00  0.1920E+03  0.1920E+03
      4.998  0.0000E+00  0.0000E+00  0.1920E+03  0.1920E+03
      5.096  0.0000E+00  0.0000E+00  0.1920E+03  0.1920E+03
      5.194  0.0000E+00  0.0000E+00  0.1920E+03  0.1920E+03
