       N       E                     dE             d eps       ncg     rms          rms(c)
DAV:   1     0.292433989441E+04    0.29243E+04   -0.10110E+05 10380   0.133E+03
DAV:   2     0.833744560823E+02   -0.28410E+04   -0.25985E+04 16500   0.249E+02
DAV:   3    -0.542251653823E+03   -0.62563E+03   -0.62250E+03 13104   0.122E+02
DAV:   4    -0.568768618487E+03   -0.26517E+02   -0.26384E+02 13128   0.327E+01
DAV:   5    -0.569475068455E+03   -0.70645E+00   -0.70483E+00 14160   0.483E+00    0.497E+01
DAV:   6    -0.404061892358E+03    0.16541E+03   -0.27042E+02 11268   0.300E+01    0.299E+01
DAV:   7    -0.430416692304E+03   -0.26355E+02   -0.34099E+01 12108   0.120E+01    0.206E+01
DAV:   8    -0.440497119913E+03   -0.10080E+02   -0.20685E+01 11736   0.939E+00    0.145E+01
DAV:   9    -0.456259622459E+03   -0.15763E+02   -0.42652E+00 11556   0.518E+00    0.128E+01
DAV:  10    -0.483738161449E+03   -0.27479E+02   -0.12080E+01 11112   0.765E+00    0.110E+01
DAV:  11    -0.506337640969E+03   -0.22599E+02   -0.11046E+01 11280   0.684E+00    0.937E+00
DAV:  12    -0.532778040826E+03   -0.26440E+02   -0.22480E+01 10896   0.791E+00    0.750E+00
DAV:  13    -0.545758078614E+03   -0.12980E+02   -0.12133E+01 11148   0.563E+00    0.626E+00
DAV:  14    -0.549661002847E+03   -0.39029E+01   -0.17929E+00 11280   0.243E+00    0.574E+00
DAV:  15    -0.552450379259E+03   -0.27894E+01   -0.98898E-01 10992   0.180E+00    0.517E+00
DAV:  16    -0.554190863915E+03   -0.17405E+01   -0.74227E-01 10596   0.151E+00    0.454E+00
DAV:  17    -0.554857466557E+03   -0.66660E+00   -0.46223E-01 10944   0.111E+00    0.379E+00
DAV:  18    -0.556812920155E+03   -0.19555E+01   -0.42982E-01 11148   0.958E-01    0.283E+00
DAV:  19    -0.556375939808E+03    0.43698E+00   -0.94149E-02 10752   0.699E-01    0.194E+00
DAV:  20    -0.556572557620E+03   -0.19662E+00   -0.50160E-02 10284   0.608E-01    0.107E+00
DAV:  21    -0.557228344726E+03   -0.65579E+00   -0.33490E-02 10896   0.504E-01    0.525E-01
DAV:  22    -0.557611952441E+03   -0.38361E+00   -0.17120E-02 10596   0.400E-01    0.245E-01
DAV:  23    -0.557646156594E+03   -0.34204E-01   -0.68820E-03 10416   0.291E-01    0.116E-01
DAV:  24    -0.557707851634E+03   -0.61695E-01   -0.33465E-03 10356   0.226E-01    0.658E-02
DAV:  25    -0.557731284823E+03   -0.23433E-01   -0.15382E-03 10680   0.156E-01    0.411E-02
DAV:  26    -0.557737151445E+03   -0.58666E-02   -0.73393E-04 10704   0.108E-01    0.290E-02
DAV:  27    -0.557742901267E+03   -0.57498E-02   -0.43516E-04 10512   0.739E-02    0.186E-02
DAV:  28    -0.557748187793E+03   -0.52865E-02   -0.31392E-04 10644   0.546E-02    0.112E-02
DAV:  29    -0.557751159463E+03   -0.29717E-02   -0.13058E-04 11244   0.357E-02    0.682E-03
DAV:  30    -0.557752304803E+03   -0.11453E-02   -0.37579E-05 10956   0.231E-02    0.405E-03
DAV:  31    -0.557752817873E+03   -0.51307E-03   -0.11606E-05 10764   0.125E-02    0.251E-03
DAV:  32    -0.557753129899E+03   -0.31203E-03   -0.46148E-06 10884   0.608E-03    0.172E-03
DAV:  33    -0.557753354538E+03   -0.22464E-03   -0.33175E-06  9552   0.349E-03    0.112E-03
DAV:  34    -0.557753471274E+03   -0.11674E-03   -0.15699E-06  9528   0.210E-03    0.714E-04
DAV:  35    -0.557753521186E+03   -0.49912E-04   -0.19258E-07  9036   0.127E-03    0.433E-04
DAV:  36    -0.557753550656E+03   -0.29470E-04   -0.57402E-08  7860   0.853E-04    0.255E-04
DAV:  37    -0.557753564435E+03   -0.13779E-04   -0.30330E-08  7656   0.555E-04    0.170E-04
DAV:  38    -0.557753573494E+03   -0.90596E-05   -0.22763E-08  7548   0.389E-04    0.108E-04
DAV:  39    -0.557753578544E+03   -0.50493E-05   -0.10223E-08  7464   0.255E-04    0.714E-05
DAV:  40    -0.557753581311E+03   -0.27671E-05   -0.24782E-09  7344   0.172E-04    0.466E-05
DAV:  41    -0.557753582881E+03   -0.15698E-05    0.43509E-10  7524   0.113E-04    0.273E-05
DAV:  42    -0.557753583620E+03   -0.73899E-06    0.23436E-09  7224   0.627E-05    0.169E-05
DAV:  43    -0.557753584064E+03   -0.44464E-06    0.27678E-09  7320   0.402E-05    0.988E-06
DAV:  44    -0.557753584283E+03   -0.21894E-06    0.30024E-09  7308   0.301E-05    0.581E-06
DAV:  45    -0.557753584382E+03   -0.98280E-07    0.33207E-09  7320   0.200E-05
   1 F= -.56505048E+03 E0= -.56505048E+03  d E =0.000000E+00  mag=     0.0000
