 vasp.5.4.4.18Apr17-6-g9f103f2a35 (build Jan 12 2023 11:40:15) complex          
  
 executed on             LinuxIFC date 2024.01.13  00:40:22
 running on   48 total cores
 distrk:  each k-point on   48 cores,    1 groups
 distr:  one band on NCORES_PER_BAND=   8 cores,    6 groups


--------------------------------------------------------------------------------------------------------


 INCAR:
 POTCAR:    PAW_PBE C 08Apr2002                   
 POTCAR:    PAW_PBE C 08Apr2002                   
   SHA256 =  253f7b50bb8d59471dbedb8285d89021f4a42ed1a2c5d38a03a736e69125dd95 C/
   COPYR  = (c) Copyright 08Apr2002 Georg Kresse                                
   COPYR  = This file is part of the software VASP. Any use, copying, and all ot
   COPYR  = If you do not have a valid VASP license, you may not use, copy or di
   VRHFIN =C: s2p2                                                              
   LEXCH  = PE                                                                  
   EATOM  =   147.1560 eV,   10.8157 Ry                                         
                                                                                
   TITEL  = PAW_PBE C 08Apr2002                                                 
   LULTRA =        F    use ultrasoft PP ?                                      
   IUNSCR =        1    unscreen: 0-lin 1-nonlin 2-no                           
   RPACOR =    1.200    partial core radius                                     
   POMASS =   12.011; ZVAL   =    4.000    mass and valenz                      
   RCORE  =    1.500    outmost cutoff radius                                   
   RWIGS  =    1.630; RWIGS  =    0.863    wigner-seitz radius (au A)           
   ENMAX  =  400.000; ENMIN  =  300.000 eV                                      
   ICORE  =        2    local potential                                         
   LCOR   =        T    correct aug charges                                     
   LPAW   =        T    paw PP                                                  
   EAUG   =  644.873                                                            
   DEXC   =    0.000                                                            
   RMAX   =    1.529    core radius for proj-oper                               
   RAUG   =    1.300    factor for augmentation sphere                          
   RDEP   =    1.501    radius for radial grids                                 
   RDEPT  =    1.300    core radius for aug-charge                              
                                                                                
   Atomic configuration                                                         
    4 entries                                                                   
     n  l   j            E        occ.                                          
     1  0  0.50      -273.3789   2.0000                                         
     2  0  0.50       -13.7508   2.0000                                         
     2  1  0.50        -5.2854   2.0000                                         
     3  2  1.50        -5.4423   0.0000                                         
   Description                                                                  
     l       E           TYP  RCUT    TYP  RCUT                                 
     0    -13.7508458     23  1.200                                             
     0     -8.2022199     23  1.200                                             
     1     -5.2854383     23  1.500                                             
     1     34.0145650     23  1.500                                             
     2     -5.4423304      7  1.500                                             
  local pseudopotential read in
  partial core-charges read in
  partial kinetic energy density read in
  atomic valenz-charges read in
  non local Contribution for L=           0  read in
    real space projection operators read in
  non local Contribution for L=           0  read in
    real space projection operators read in
  non local Contribution for L=           1  read in
    real space projection operators read in
  non local Contribution for L=           1  read in
    real space projection operators read in
    PAW grid and wavefunctions read in
 
   number of l-projection  operators is LMAX  =           4
   number of lm-projection operators is LMMAX =           8
 

 ----------------------------------------------------------------------------- 
|                                                                             |
|  ADVICE TO THIS USER RUNNING 'VASP/VAMP'   (HEAR YOUR MASTER'S VOICE ...):  |
|                                                                             |
|      You have a (more or less) 'large supercell' and for larger cells       |
|      it might be more efficient to use real space projection opertators     |
|      So try LREAL= Auto  in the INCAR   file.                               |
|      Mind:          For very  accurate calculation you might also keep the  |
|      reciprocal projection scheme          (i.e. LREAL=.FALSE.)             |
|                                                                             |
 ----------------------------------------------------------------------------- 

  PAW_PBE C 08Apr2002                   :
 energy of atom  1       EATOM= -147.1560
 kinetic energy error for atom=    0.0012 (will be added to EATOM!!)
 
 
 POSCAR: POSCAR file written by OVITO Basic 3.7.1
  positions in direct lattice
  velocities in cartesian coordinates
 exchange correlation table for  LEXCH =        8
   RHO(1)=    0.500       N(1)  =     2000
   RHO(2)=  100.500       N(2)  =     4000
 


--------------------------------------------------------------------------------------------------------


 ion  position               nearest neighbor table
   1  0.995  0.995  0.385-   2 1.41  14 1.42  48 1.42
   2  0.078  0.078  0.386-   1 1.41   5 1.42  17 1.42
   3  0.089  0.089  0.454-  16 1.41  50 1.42   4 1.42
   4  0.173  0.173  0.454-   7 1.41  19 1.41   3 1.42
   5  0.995  0.245  0.386-   2 1.42  52 1.42   6 1.42
   6  0.079  0.328  0.387-   9 1.41   5 1.42  21 1.42
   7  0.090  0.340  0.454-   4 1.41  54 1.43   8 1.44
   8  0.176  0.424  0.451-  23 1.40  11 1.43   7 1.44
   9  0.994  0.494  0.387-   6 1.41  10 1.42  56 1.43
  10  0.079  0.578  0.388-  13 1.42   9 1.42  24 1.43
  11  0.088  0.592  0.451-  12 1.41  58 1.42   8 1.43
  12  0.168  0.676  0.447-  11 1.41  15 1.41  26 1.46
  13  0.994  0.745  0.387-  14 1.41  60 1.41  10 1.42
  14  0.077  0.828  0.387-  13 1.41  28 1.41   1 1.42
  15  0.088  0.839  0.453-  16 1.41  12 1.41  62 1.42
  16  0.172  0.923  0.453-  15 1.41   3 1.41  30 1.42
  17  0.244  0.995  0.386-   2 1.42  29 1.42  18 1.42
  18  0.328  0.079  0.387-  32 1.41  17 1.42  21 1.42
  19  0.340  0.090  0.454-   4 1.41  31 1.43  20 1.44
  20  0.424  0.176  0.451-  23 1.40  34 1.43  19 1.44
  21  0.246  0.246  0.388-  18 1.42   6 1.42  22 1.43
  22  0.329  0.329  0.394-  24 1.43  36 1.43  21 1.43
  23  0.341  0.340  0.450-  20 1.40   8 1.40
  24  0.243  0.497  0.395-  22 1.43  10 1.43  25 1.45
  25  0.309  0.592  0.405-  24 1.45  28 1.46  26 1.53
  26  0.325  0.608  0.435-  27 1.45  12 1.46  25 1.53
  27  0.420  0.674  0.445-  41 1.43  30 1.43  26 1.45
  28  0.240  0.748  0.393-  29 1.41  14 1.41  25 1.46
  29  0.325  0.829  0.389-  28 1.41  17 1.42  43 1.43
  30  0.339  0.837  0.452-  16 1.42  31 1.42  27 1.43
  31  0.422  0.922  0.454-  45 1.41  30 1.42  19 1.43
  32  0.494  0.994  0.386-  18 1.41  33 1.42  44 1.43
  33  0.578  0.079  0.388-  47 1.42  32 1.42  36 1.43
  34  0.592  0.088  0.451-  35 1.41  46 1.42  20 1.43
  35  0.676  0.168  0.447-  34 1.41  49 1.41  38 1.46
  36  0.497  0.243  0.395-  22 1.43  33 1.43  37 1.45
  37  0.592  0.309  0.405-  36 1.45  51 1.46  38 1.53
  38  0.608  0.325  0.435-  39 1.45  35 1.46  37 1.53
  39  0.674  0.420  0.445-  41 1.43  53 1.43  38 1.45
  40  0.576  0.576  0.390-  43 1.40  55 1.40
  41  0.587  0.587  0.446-  39 1.43  27 1.43  42 1.43
  42  0.671  0.671  0.452-  45 1.42  57 1.42  41 1.43
  43  0.493  0.740  0.389-  40 1.40  29 1.43  44 1.44
  44  0.577  0.826  0.386-  59 1.41  32 1.43  43 1.44
  45  0.588  0.838  0.453-  31 1.41  46 1.42  42 1.42
  46  0.672  0.922  0.454-  61 1.42  34 1.42  45 1.42
  47  0.745  0.993  0.387-  48 1.41  60 1.41  33 1.42
  48  0.828  0.077  0.387-  47 1.41  51 1.41   1 1.42
  49  0.839  0.088  0.453-  50 1.41  35 1.41  62 1.42
  50  0.923  0.172  0.453-  49 1.41   3 1.42  53 1.42
  51  0.748  0.240  0.393-  52 1.41  48 1.41  37 1.46
  52  0.829  0.325  0.389-  51 1.41   5 1.42  55 1.43
  53  0.837  0.339  0.452-  50 1.42  54 1.42  39 1.43
  54  0.922  0.422  0.453-  57 1.41  53 1.42   7 1.43
  55  0.740  0.493  0.389-  40 1.40  52 1.43  56 1.44
  56  0.826  0.577  0.386-  59 1.41   9 1.43  55 1.44
  57  0.838  0.588  0.453-  54 1.41  58 1.42  42 1.42
  58  0.922  0.672  0.454-  61 1.42  11 1.42  57 1.42
  59  0.743  0.743  0.386-  56 1.41  44 1.41  60 1.42
  60  0.827  0.827  0.386-  47 1.41  13 1.41  59 1.42
  61  0.839  0.838  0.454-  62 1.41  58 1.42  46 1.42
  62  0.922  0.922  0.455-  61 1.41  49 1.42  15 1.42
 

IMPORTANT INFORMATION: All symmetrisations will be switched off!
NOSYMM: (Re-)initialisation of all symmetry stuff for point group C_1.

 
 

Automatic generation of k-mesh.
 generate k-points for:    5    5    1
Space group operators:
 irot       det(A)        alpha          n_x          n_y          n_z        tau_x        tau_y        tau_z
    1     1.000000     0.000000     1.000000     0.000000     0.000000     0.000000     0.000000     0.000000
 
 Subroutine IBZKPT returns following result:
 ===========================================
 
 Found     13 irreducible k-points:
 
 Following reciprocal coordinates:
            Coordinates               Weight
  0.000000  0.000000  0.000000      1.000000
  0.200000  0.000000  0.000000      2.000000
  0.400000  0.000000  0.000000      2.000000
 -0.000000  0.200000  0.000000      2.000000
  0.200000  0.200000  0.000000      2.000000
  0.400000  0.200000  0.000000      2.000000
 -0.400000  0.200000 -0.000000      2.000000
 -0.200000  0.200000 -0.000000      2.000000
 -0.000000  0.400000  0.000000      2.000000
  0.200000  0.400000  0.000000      2.000000
  0.400000  0.400000  0.000000      2.000000
 -0.400000  0.400000 -0.000000      2.000000
 -0.200000  0.400000 -0.000000      2.000000
 
 Following cartesian coordinates:
            Coordinates               Weight
  0.000000  0.000000  0.000000      1.000000
  0.020406 -0.011689 -0.000040      2.000000
  0.040812 -0.023378 -0.000080      2.000000
  0.000097  0.023514 -0.000042      2.000000
  0.020503  0.011825 -0.000082      2.000000
  0.040909  0.000136 -0.000122      2.000000
 -0.040715  0.046892  0.000038      2.000000
 -0.020309  0.035203 -0.000002      2.000000
  0.000194  0.047028 -0.000084      2.000000
  0.020600  0.035339 -0.000124      2.000000
  0.041006  0.023650 -0.000165      2.000000
 -0.040619  0.070406 -0.000004      2.000000
 -0.020212  0.058717 -0.000044      2.000000
 
 TETIRR: Found     72 inequivalent tetrahedra from      150


--------------------------------------------------------------------------------------------------------




 Dimension of arrays:
   k-points           NKPTS =     13   k-points in BZ     NKDIM =     13   number of bands    NBANDS=    192
   number of dos      NEDOS =    301   number of ions     NIONS =     62
   non local maximal  LDIM  =      4   non local SUM 2l+1 LMDIM =      8
   total plane-waves  NPLWV = ******
   max r-space proj   IRMAX =      1   max aug-charges    IRDMAX=  12820
   dimension x,y,z NGX =    96 NGY =   96 NGZ =  480
   dimension x,y,z NGXF=   192 NGYF=  192 NGZF=  960
   support grid    NGXF=   192 NGYF=  192 NGZF=  960
   ions per type =              62
   NGX,Y,Z   is equivalent  to a cutoff of  16.32, 16.32, 16.05 a.u.
   NGXF,Y,Z  is equivalent  to a cutoff of  32.64, 32.64, 32.09 a.u.

 SYSTEM =  unknown system                          
 POSCAR =  POSCAR file written by OVITO Basic 3.7.1

 Startparameter for this run:
   NWRITE =      2    write-flag & timer
   PREC   = accura    normal or accurate (medium, high low for compatibility)
   ISTART =      0    job   : 0-new  1-cont  2-samecut
   ICHARG =      2    charge: 1-file 2-atom 10-const
   ISPIN  =      2    spin polarized calculation?
   LNONCOLLINEAR =      F non collinear calculations
   LSORBIT =      F    spin-orbit coupling
   INIWAV =      1    electr: 0-lowe 1-rand  2-diag
   LASPH  =      F    aspherical Exc in radial PAW
   METAGGA=      F    non-selfconsistent MetaGGA calc.

 Electronic Relaxation 1
   ENCUT  =  850.0 eV  62.47 Ry    7.90 a.u.  23.24 23.25118.22*2*pi/ulx,y,z
   ENINI  =  850.0     initial cutoff
   ENAUG  =  644.9 eV  augmentation charge cutoff
   NELM   =    150;   NELMIN=  2; NELMDL= -5     # of ELM steps 
   EDIFF  = 0.1E-06   stopping-criterion for ELM
   LREAL  =      F    real-space projection
   NLSPLINE    = F    spline interpolate recip. space projectors
   LCOMPAT=      F    compatible to vasp.4.4
   GGA_COMPAT  = T    GGA compatible to vasp.4.4-vasp.4.6
   LMAXPAW     = -100 max onsite density
   LMAXMIX     =    2 max onsite mixed and CHGCAR
   VOSKOWN=      0    Vosko Wilk Nusair interpolation
   ROPT   =    0.00000
 Ionic relaxation
   EDIFFG = 0.1E-05   stopping-criterion for IOM
   NSW    =      1    number of steps for IOM
   NBLOCK =      1;   KBLOCK =      1    inner block; outer block 
   IBRION =     -1    ionic relax: 0-MD 1-quasi-New 2-CG
   NFREE  =      0    steps in history (QN), initial steepest desc. (CG)
   ISIF   =      2    stress and relaxation
   IWAVPR =     10    prediction:  0-non 1-charg 2-wave 3-comb
   ISYM   =      0    0-nonsym 1-usesym 2-fastsym
   LCORR  =      T    Harris-Foulkes like correction to forces

   POTIM  = 0.5000    time-step for ionic-motion
   TEIN   =    0.0    initial temperature
   TEBEG  =    0.0;   TEEND  =   0.0 temperature during run
   SMASS  =  -3.00    Nose mass-parameter (am)
   estimated Nose-frequenzy (Omega)   =  0.10E-29 period in steps =****** mass=  -0.218E-26a.u.
   SCALEE = 1.0000    scale energy and forces
   NPACO  =    256;   APACO  = 16.0  distance and # of slots for P.C.
   PSTRESS=    0.0 pullay stress

  Mass of Ions in am
   POMASS =  12.01
  Ionic Valenz
   ZVAL   =   4.00
  Atomic Wigner-Seitz radii
   RWIGS  =  -1.00
  virtual crystal weights 
   VCA    =   1.00
   NELECT =     248.0000    total number of electrons
   NUPDOWN=      -1.0000    fix difference up-down

 DOS related values:
   EMIN   =  10.00;   EMAX   =-10.00  energy-range for DOS
   EFERMI =   0.00
   ISMEAR =    -5;   SIGMA  =   0.02  broadening in eV -4-tet -1-fermi 0-gaus

 Electronic relaxation 2 (details)
   IALGO  =     38    algorithm
   LDIAG  =      T    sub-space diagonalisation (order eigenvalues)
   LSUBROT=      F    optimize rotation matrix (better conditioning)
   TURBO    =      0    0=normal 1=particle mesh
   IRESTART =      0    0=no restart 2=restart with 2 vectors
   NREBOOT  =      0    no. of reboots
   NMIN     =      0    reboot dimension
   EREF     =   0.00    reference energy to select bands
   IMIX   =      4    mixing-type and parameters
     AMIX     =   0.40;   BMIX     =  1.00
     AMIX_MAG =   1.60;   BMIX_MAG =  1.00
     AMIN     =   0.10
     WC   =   100.;   INIMIX=   1;  MIXPRE=   1;  MAXMIX= -45

 Intra band minimization:
   WEIMIN = 0.0000     energy-eigenvalue tresh-hold
   EBREAK =  0.13E-09  absolut break condition
   DEPER  =   0.30     relativ break condition  

   TIME   =   0.40     timestep for ELM

  volume/ion in A,a.u.               =      66.71       450.18
  Fermi-wavevector in a.u.,A,eV,Ry     =   0.640765  1.210871  5.586284  0.410580
  Thomas-Fermi vector in A             =   1.706882
 
 Write flags
   LWAVE        =      F    write WAVECAR
   LDOWNSAMPLE  =      F    k-point downsampling of WAVECAR
   LCHARG       =      F    write CHGCAR
   LVTOT        =      F    write LOCPOT, total local potential
   LVHAR        =      F    write LOCPOT, Hartree potential only
   LELF         =      F    write electronic localiz. function (ELF)
   LORBIT       =      0    0 simple, 1 ext, 2 COOP (PROOUT), +10 PAW based schemes


 Dipole corrections
   LMONO  =      F    monopole corrections only (constant potential shift)
   LDIPOL =      F    correct potential (dipole corrections)
   IDIPOL =      0    1-x, 2-y, 3-z, 4-all directions 
   EPSILON=  1.0000000 bulk dielectric constant

 Exchange correlation treatment:
   GGA     =    --    GGA type
   LEXCH   =     8    internal setting for exchange type
   VOSKOWN=      0    Vosko Wilk Nusair interpolation
   LHFCALC =     F    Hartree Fock is set to
   LHFONE  =     F    Hartree Fock one center treatment
   AEXX    =    0.0000 exact exchange contribution

 Linear response parameters
   LEPSILON=     F    determine dielectric tensor
   LRPA    =     F    only Hartree local field effects (RPA)
   LNABLA  =     F    use nabla operator in PAW spheres
   LVEL    =     F    velocity operator in full k-point grid
   LINTERFAST=   F  fast interpolation
   KINTER  =     0    interpolate to denser k-point grid
   CSHIFT  =0.1000    complex shift for real part using Kramers Kronig
   OMEGAMAX=  -1.0    maximum frequency
   DEG_THRESHOLD= 0.2000000E-02 threshold for treating states as degnerate
   RTIME   =   -0.100 relaxation time in fs
  (WPLASMAI=    0.000 imaginary part of plasma frequency in eV, 0.658/RTIME)
   DFIELD  = 0.0000000 0.0000000 0.0000000 field for delta impulse in time
 
 Orbital magnetization related:
   ORBITALMAG=     F  switch on orbital magnetization
   LCHIMAG   =     F  perturbation theory with respect to B field
   DQ        =  0.001000  dq finite difference perturbation B field
   LLRAUG    =     F  two centre corrections for induced B field



--------------------------------------------------------------------------------------------------------


 Static calculation
 charge density and potential will be updated during run
 spin polarized calculation
 Variant of blocked Davidson
 Davidson routine will perform the subspace rotation
 perform sub-space diagonalisation
    after iterative eigenvector-optimisation
 modified Broyden-mixing scheme, WC =      100.0
 initial mixing is a Kerker type mixing with AMIX =  0.4000 and BMIX =      1.0000
 Hartree-type preconditioning will be used
 using additional bands           68
 reciprocal scheme for non local part
 use partial core corrections
 calculate Harris-corrections to forces 
   (improved forces if not selfconsistent)
 use gradient corrections 
 use of overlap-Matrix (Vanderbilt PP)
 Fermi weights with tetrahedron method with Bloechl corrections


--------------------------------------------------------------------------------------------------------


  energy-cutoff  :      850.00
  volume of cell :     4135.99
      direct lattice vectors                 reciprocal lattice vectors
     9.777937446 -0.040258176  0.028975538     0.102031022 -0.058444566 -0.000201094
     4.860691242  8.485568734  0.029419213     0.000484688  0.117570229 -0.000210201
     0.148596923  0.088301621 49.731656900    -0.000059734 -0.000035498  0.020108158

  length of vectors
     9.778063254  9.779164666 49.731957294     0.117584596  0.117571416  0.020108278


 
 k-points in units of 2pi/SCALE and weight: read from INCAR                         
   0.00000000  0.00000000  0.00000000       0.040
   0.02040620 -0.01168891 -0.00004022       0.080
   0.04081241 -0.02337783 -0.00008044       0.080
   0.00009694  0.02351405 -0.00004204       0.080
   0.02050314  0.01182513 -0.00008226       0.080
   0.04090935  0.00013622 -0.00012248       0.080
  -0.04071547  0.04689187  0.00003840       0.080
  -0.02030927  0.03520296 -0.00000182       0.080
   0.00019388  0.04702809 -0.00008408       0.080
   0.02060008  0.03533918 -0.00012430       0.080
   0.04100628  0.02365027 -0.00016452       0.080
  -0.04061853  0.07040592 -0.00000364       0.080
  -0.02021233  0.05871700 -0.00004386       0.080
 
 k-points in reciprocal lattice and weights: read from INCAR                         
   0.00000000  0.00000000  0.00000000       0.040
   0.20000000  0.00000000  0.00000000       0.080
   0.40000000  0.00000000  0.00000000       0.080
  -0.00000000  0.20000000  0.00000000       0.080
   0.20000000  0.20000000  0.00000000       0.080
   0.40000000  0.20000000  0.00000000       0.080
  -0.40000000  0.20000000 -0.00000000       0.080
  -0.20000000  0.20000000 -0.00000000       0.080
  -0.00000000  0.40000000  0.00000000       0.080
   0.20000000  0.40000000  0.00000000       0.080
   0.40000000  0.40000000  0.00000000       0.080
  -0.40000000  0.40000000 -0.00000000       0.080
  -0.20000000  0.40000000 -0.00000000       0.080
 
 position of ions in fractional coordinates (direct lattice) 
   0.99482403  0.99485387  0.38526325
   0.07804682  0.07816236  0.38598079
   0.08929337  0.08926390  0.45405424
   0.17346125  0.17341878  0.45424891
   0.99455985  0.24451806  0.38644784
   0.07889253  0.32822877  0.38666152
   0.09022351  0.33967811  0.45372557
   0.17635471  0.42359887  0.45134126
   0.99440620  0.49447934  0.38650914
   0.07917357  0.57773260  0.38834391
   0.08782385  0.59153303  0.45057756
   0.16841673  0.67622262  0.44723305
   0.99351979  0.74466110  0.38715126
   0.07729393  0.82817252  0.38720720
   0.08848264  0.83925859  0.45277420
   0.17192441  0.92309319  0.45283917
   0.24444477  0.99466823  0.38642874
   0.32815800  0.07897708  0.38665332
   0.33976303  0.09010300  0.45374233
   0.42369547  0.17617905  0.45136911
   0.24599994  0.24603481  0.38806952
   0.32918961  0.32918644  0.39356932
   0.34053457  0.34029216  0.45034490
   0.24287889  0.49672315  0.39500280
   0.30884664  0.59154704  0.40482701
   0.32500446  0.60803794  0.43510178
   0.41984261  0.67383096  0.44495936
   0.24039131  0.74823499  0.39271341
   0.32495629  0.82892698  0.38937890
   0.33887491  0.83743933  0.45164764
   0.42215525  0.92213146  0.45350391
   0.49445059  0.99443107  0.38649662
   0.57773184  0.07912459  0.38835160
   0.59164824  0.08763797  0.45062145
   0.67621555  0.16832814  0.44728564
   0.49676315  0.24273321  0.39503921
   0.59160074  0.30852651  0.40489675
   0.60776067  0.32501577  0.43517146
   0.67372825  0.41984016  0.44499574
   0.57607107  0.57627069  0.38965480
   0.58741625  0.58737787  0.44642973
   0.67060607  0.67052806  0.45193110
   0.49291043  0.74038474  0.38863125
   0.57684354  0.82646061  0.38625857
   0.58844647  0.83758763  0.45334796
   0.67216226  0.92189474  0.45357293
   0.74468011  0.99347055  0.38715996
   0.82812416  0.07730515  0.38722484
   0.83931174  0.08839210  0.45279189
   0.92308535  0.17190253  0.45284789
   0.74818803  0.24034172  0.39276597
   0.82878291  0.32502988  0.38942288
   0.83743274  0.33883118  0.45165540
   0.92219824  0.42208494  0.45349160
   0.74024940  0.49296619  0.38865925
   0.82638341  0.57688455  0.38627552
   0.83771306  0.58833453  0.45333991
   0.92204553  0.67204623  0.45355394
   0.74314277  0.74314573  0.38575190
   0.82731425  0.82729983  0.38594564
   0.83855794  0.83840193  0.45402084
   0.92178190  0.92170977  0.45473682
 
 position of ions in cartesian coordinates  (Angst):
  14.62025354  8.43587046 19.21787334
   1.20041555  0.69419275 19.20002501
   1.37446037  0.79395393 22.58608321
   2.60652841  1.50468470 22.60067907
  10.97069573  2.06895959 19.25470259
   2.42428162  2.81617454 19.24126039
   2.60069245  2.91879444 22.57713175
   3.85043661  3.62723181 22.46352060
  12.18418708  4.19003487 19.26510071
   3.64004074  4.93349369 19.33227651
   3.80094998  5.05574526 22.42791566
   5.00013510  5.77084479 22.26641472
  13.39167149  6.31306172 19.30436873
   4.83880395  7.05859419 19.28305946
   5.01183544  7.15800496 22.54446547
   6.23522762  7.86603576 22.55258031
   7.28236294  8.46460706 19.25408701
   3.65004708  0.69109649 19.24074228
   3.82756923  0.79096310 22.57785325
   5.06629186  1.51777884 22.46479341
   3.65893723  2.11210897 19.31370639
   4.87735218  2.81483436 19.59207711
   5.05070074  2.91362943 22.41627614
   4.84796871  4.24007997 19.66579439
   5.95536674  5.04292637 20.15906978
   6.19801278  5.18488383 21.66563751
   7.44659865  5.74022747 22.16055507
   6.04582644  6.37419894 19.55926670
   7.26442094  7.05521753 19.39826004
   7.45114515  7.13238773 22.49564123
   8.67739328  7.84785982 22.59286161
   9.72576152  8.45253576 19.26469966
   6.09133382  0.68245078 19.33243617
   6.27804152  0.75962996 22.42987309
   7.49664968  1.44063282 22.26880189
   6.09587180  2.07461316 19.66748934
   7.34445351  2.62995916 20.16240501
   7.58711232  2.77190269 21.66896979
   8.69451106  3.57475330 22.16224836
   8.49176230  4.90120015 19.41182434
   8.66511986  5.00000741 22.23599112
   9.88352961  5.70272082 22.51443999
   8.47617839  6.29705869 19.36333986
   9.71490670  7.02387291 19.25030701
   9.89241381  7.12374902 22.58743716
  11.12080579  7.83579240 22.60353093
  12.16791987  8.43437000 19.30491080
   8.53064315  0.65683195 19.28360237
   8.70366789  0.75625035 22.54501073
   9.92872770  1.46151623 22.55268016
   8.54232648  2.04399736 19.56165239
   9.74152436  2.75908475 19.40022166
   9.90243327  2.88134367 22.49580448
  11.13620877  3.58454883 22.59202746
   9.69202233  4.18761665 19.36462033
  10.94178238  4.89603359 19.25103790
  11.11818332  4.99865892 22.58692644
  12.34970948  5.70562420 22.60247696
  10.93592699  6.31015913 19.22747710
  12.16802632  7.02088300 19.24202653
  12.34204615  7.12064918 22.62817131
  13.56084491  7.82427635 22.66864053
 


--------------------------------------------------------------------------------------------------------


 k-point  1 :   0.0000 0.0000 0.0000  plane waves:  232903
 k-point  2 :   0.2000 0.0000 0.0000  plane waves:  232764
 k-point  3 :   0.4000 0.0000 0.0000  plane waves:  232683
 k-point  4 :  -0.0000 0.2000 0.0000  plane waves:  232764
 k-point  5 :   0.2000 0.2000 0.0000  plane waves:  232767
 k-point  6 :   0.4000 0.2000 0.0000  plane waves:  232781
 k-point  7 :  -0.4000 0.2000-0.0000  plane waves:  232703
 k-point  8 :  -0.2000 0.2000-0.0000  plane waves:  232570
 k-point  9 :  -0.0000 0.4000 0.0000  plane waves:  232675
 k-point 10 :   0.2000 0.4000 0.0000  plane waves:  232793
 k-point 11 :   0.4000 0.4000 0.0000  plane waves:  232754
 k-point 12 :  -0.4000 0.4000-0.0000  plane waves:  232761
 k-point 13 :  -0.2000 0.4000-0.0000  plane waves:  232698

 maximum and minimum number of plane-waves per node :     29185    28967

 maximum number of plane-waves:    232903
 maximum index in each direction: 
   IXMAX=   23   IYMAX=   23   IZMAX=  118
   IXMIN=  -23   IYMIN=  -23   IZMIN= -118


 parallel 3D FFT for wavefunctions:
    minimum data exchange during FFTs selected (reduces bandwidth)
 parallel 3D FFT for charge:
    minimum data exchange during FFTs selected (reduces bandwidth)


 total amount of memory used by VASP MPI-rank0   609826. kBytes
=======================================================================

   base      :      30000. kBytes
   nonl-proj :      53067. kBytes
   fftplans  :      41090. kBytes
   grid      :      97443. kBytes
   one-center:         49. kBytes
   wavefun   :     388177. kBytes
 
     INWAV:  cpu time    0.0000: real time    0.0000
 Broyden mixing: mesh for mixing (old mesh)
   NGX = 47   NGY = 47   NGZ =237
  (NGX  =192   NGY  =192   NGZ  =960)
  gives a total of 523533 points

 initial charge density was supplied:
 charge density of overlapping atoms calculated
 number of electron     248.0000000 magnetization      62.0000000
 keeping initial charge density in first step


--------------------------------------------------------------------------------------------------------


 Maximum index for augmentation-charges          585 (set IRDMAX)


--------------------------------------------------------------------------------------------------------


 First call to EWALD:  gamma=   0.110
 Maximum number of real-space cells 5x 5x 1
 Maximum number of reciprocal cells 2x 2x 7

    FEWALD:  cpu time    0.0023: real time    0.0023


--------------------------------------- Iteration      1(   1)  ---------------------------------------


    POTLOK:  cpu time    1.7710: real time    1.7854
    SETDIJ:  cpu time    0.0253: real time    0.0273
     EDDAV:  cpu time  312.9365: real time  313.7769
 BZINTS: Fermi energy:  7.030137;248.000000 electrons
         Band energy:-592.943738;  BLOECHL correction: -0.033188
       DOS:  cpu time    0.0332: real time    0.0333
    --------------------------------------------
      LOOP:  cpu time  314.7660: real time  315.6228

 eigenvalue-minimisations  : 10380
 total energy-change (2. order) : 0.2924340E+04  (-0.1010958E+05)
 number of electron     248.0000000 magnetization      62.0000000
 augmentation part      248.0000000 magnetization      62.0000000

 Free energy of the ion-electron system (eV)
  ---------------------------------------------------
  alpha Z        PSCENC =        76.34746351
  Ewald energy   TEWEN  =    212750.54421994
  -Hartree energ DENC   =   -219227.99011850
  -exchange      EXHF   =         0.00000000
  -V(xc)+E(xc)   XCENC  =       829.53924864
  PAW double counting   =      6720.41546902    -6755.16969339
  entropy T*S    EENTRO =         0.00000000
  eigenvalues    EBANDS =      -592.94373812
  atomic energy  EATOM  =      9123.59704331
  Solvation  Ediel_sol  =         0.00000000
  ---------------------------------------------------
  free energy    TOTEN  =      2924.33989441 eV

  energy without entropy =     2924.33989441  energy(sigma->0) =     2924.33989441


--------------------------------------------------------------------------------------------------------




--------------------------------------- Iteration      1(   2)  ---------------------------------------


     EDDAV:  cpu time  444.8477: real time  445.9445
 BZINTS: Fermi energy: -2.736152;248.000000 electrons
         Band energy:***********;  BLOECHL correction: -0.023918
       DOS:  cpu time    0.0310: real time    0.0310
    --------------------------------------------
      LOOP:  cpu time  444.8787: real time  445.9755

 eigenvalue-minimisations  : 16500
 total energy-change (2. order) :-0.2840965E+04  (-0.2598523E+04)
 number of electron     248.0000000 magnetization      62.0000000
 augmentation part      248.0000000 magnetization      62.0000000

 Free energy of the ion-electron system (eV)
  ---------------------------------------------------
  alpha Z        PSCENC =        76.34746351
  Ewald energy   TEWEN  =    212750.54421994
  -Hartree energ DENC   =   -219227.99011850
  -exchange      EXHF   =         0.00000000
  -V(xc)+E(xc)   XCENC  =       829.53924864
  PAW double counting   =      6720.41546902    -6755.16969339
  entropy T*S    EENTRO =         0.00000000
  eigenvalues    EBANDS =     -3433.90917645
  atomic energy  EATOM  =      9123.59704331
  Solvation  Ediel_sol  =         0.00000000
  ---------------------------------------------------
  free energy    TOTEN  =        83.37445608 eV

  energy without entropy =       83.37445608  energy(sigma->0) =       83.37445608


--------------------------------------------------------------------------------------------------------




--------------------------------------- Iteration      1(   3)  ---------------------------------------


     EDDAV:  cpu time  368.2523: real time  369.1674
 BZINTS: Fermi energy: -6.636121;248.000000 electrons
         Band energy:***********;  BLOECHL correction: -0.036713
       DOS:  cpu time    0.0331: real time    0.0332
    --------------------------------------------
      LOOP:  cpu time  368.2854: real time  369.2006

 eigenvalue-minimisations  : 13104
 total energy-change (2. order) :-0.6256261E+03  (-0.6225046E+03)
 number of electron     248.0000000 magnetization      62.0000000
 augmentation part      248.0000000 magnetization      62.0000000

 Free energy of the ion-electron system (eV)
  ---------------------------------------------------
  alpha Z        PSCENC =        76.34746351
  Ewald energy   TEWEN  =    212750.54421994
  -Hartree energ DENC   =   -219227.99011850
  -exchange      EXHF   =         0.00000000
  -V(xc)+E(xc)   XCENC  =       829.53924864
  PAW double counting   =      6720.41546902    -6755.16969339
  entropy T*S    EENTRO =         0.00000000
  eigenvalues    EBANDS =     -4059.53528636
  atomic energy  EATOM  =      9123.59704331
  Solvation  Ediel_sol  =         0.00000000
  ---------------------------------------------------
  free energy    TOTEN  =      -542.25165382 eV

  energy without entropy =     -542.25165382  energy(sigma->0) =     -542.25165382


--------------------------------------------------------------------------------------------------------




--------------------------------------- Iteration      1(   4)  ---------------------------------------


     EDDAV:  cpu time  369.1894: real time  370.0930
 BZINTS: Fermi energy: -6.830420;248.000000 electrons
         Band energy:***********;  BLOECHL correction: -0.039320
       DOS:  cpu time    0.0327: real time    0.0328
    --------------------------------------------
      LOOP:  cpu time  369.2221: real time  370.1258

 eigenvalue-minimisations  : 13128
 total energy-change (2. order) :-0.2651696E+02  (-0.2638374E+02)
 number of electron     248.0000000 magnetization      62.0000000
 augmentation part      248.0000000 magnetization      62.0000000

 Free energy of the ion-electron system (eV)
  ---------------------------------------------------
  alpha Z        PSCENC =        76.34746351
  Ewald energy   TEWEN  =    212750.54421994
  -Hartree energ DENC   =   -219227.99011850
  -exchange      EXHF   =         0.00000000
  -V(xc)+E(xc)   XCENC  =       829.53924864
  PAW double counting   =      6720.41546902    -6755.16969339
  entropy T*S    EENTRO =         0.00000000
  eigenvalues    EBANDS =     -4086.05225102
  atomic energy  EATOM  =      9123.59704331
  Solvation  Ediel_sol  =         0.00000000
  ---------------------------------------------------
  free energy    TOTEN  =      -568.76861849 eV

  energy without entropy =     -568.76861849  energy(sigma->0) =     -568.76861849


--------------------------------------------------------------------------------------------------------




--------------------------------------- Iteration      1(   5)  ---------------------------------------


     EDDAV:  cpu time  388.3985: real time  389.3420
 BZINTS: Fermi energy: -6.836793;248.000000 electrons
         Band energy:***********;  BLOECHL correction: -0.039213
       DOS:  cpu time    0.0321: real time    0.0322
    CHARGE:  cpu time   21.6947: real time   21.7465
    MIXING:  cpu time    0.0416: real time    0.0447
    --------------------------------------------
      LOOP:  cpu time  410.1670: real time  411.1654

 eigenvalue-minimisations  : 14160
 total energy-change (2. order) :-0.7064500E+00  (-0.7048306E+00)
 number of electron     247.9999996 magnetization      60.5154679
 augmentation part        6.4482691 magnetization      57.7565055

 Broyden mixing:
  rms(total) = 0.49701E+01    rms(broyden)= 0.49700E+01
  rms(prec ) = 0.49975E+01
  weight for this iteration     100.00

 Free energy of the ion-electron system (eV)
  ---------------------------------------------------
  alpha Z        PSCENC =        76.34746351
  Ewald energy   TEWEN  =    212750.54421994
  -Hartree energ DENC   =   -219227.99011850
  -exchange      EXHF   =         0.00000000
  -V(xc)+E(xc)   XCENC  =       829.53924864
  PAW double counting   =      6720.41546902    -6755.16969339
  entropy T*S    EENTRO =         0.00000000
  eigenvalues    EBANDS =     -4086.75870099
  atomic energy  EATOM  =      9123.59704331
  Solvation  Ediel_sol  =         0.00000000
  ---------------------------------------------------
  free energy    TOTEN  =      -569.47506845 eV

  energy without entropy =     -569.47506845  energy(sigma->0) =     -569.47506845


--------------------------------------------------------------------------------------------------------




--------------------------------------- Iteration      1(   6)  ---------------------------------------


    POTLOK:  cpu time    1.6975: real time    1.7114
    SETDIJ:  cpu time    0.0244: real time    0.0244
     EDDAV:  cpu time  327.5101: real time  328.2981
 BZINTS: Fermi energy: -5.399470;248.000000 electrons
         Band energy:***********;  BLOECHL correction: -0.041390
       DOS:  cpu time    0.0318: real time    0.0319
    CHARGE:  cpu time   21.0112: real time   21.0610
    MIXING:  cpu time    0.0431: real time    0.0437
    --------------------------------------------
      LOOP:  cpu time  350.3180: real time  351.1705

 eigenvalue-minimisations  : 11268
 total energy-change (2. order) : 0.1654132E+03  (-0.2704217E+02)
 number of electron     247.9999996 magnetization      58.7651038
 augmentation part        6.3631955 magnetization      52.9744037

 Broyden mixing:
  rms(total) = 0.29942E+01    rms(broyden)= 0.29942E+01
  rms(prec ) = 0.30149E+01
  weight for this iteration     100.00

 eigenvalues of (default mixing * dielectric matrix)
  average eigenvalue GAMMA=   0.9972
  0.9972

 Free energy of the ion-electron system (eV)
  ---------------------------------------------------
  alpha Z        PSCENC =        76.34746351
  Ewald energy   TEWEN  =    212750.54421994
  -Hartree energ DENC   =   -219560.52101539
  -exchange      EXHF   =         0.00000000
  -V(xc)+E(xc)   XCENC  =       936.02328866
  PAW double counting   =     12189.88631680   -12229.54213989
  entropy T*S    EENTRO =         0.00000000
  eigenvalues    EBANDS =     -3690.39706931
  atomic energy  EATOM  =      9123.59704331
  Solvation  Ediel_sol  =         0.00000000
  ---------------------------------------------------
  free energy    TOTEN  =      -404.06189236 eV

  energy without entropy =     -404.06189236  energy(sigma->0) =     -404.06189236


--------------------------------------------------------------------------------------------------------




--------------------------------------- Iteration      1(   7)  ---------------------------------------


    POTLOK:  cpu time    1.6634: real time    1.6773
    SETDIJ:  cpu time    0.0245: real time    0.0246
     EDDAV:  cpu time  343.1130: real time  343.9407
 BZINTS: Fermi energy: -4.170596;248.000000 electrons
         Band energy:***********;  BLOECHL correction: -0.030160
       DOS:  cpu time    0.0337: real time    0.0338
    CHARGE:  cpu time   22.5598: real time   22.6143
    MIXING:  cpu time    0.0358: real time    0.0359
    --------------------------------------------
      LOOP:  cpu time  367.4301: real time  368.3265

 eigenvalue-minimisations  : 12108
 total energy-change (2. order) :-0.2635480E+02  (-0.3409921E+01)
 number of electron     247.9999996 magnetization      56.1757048
 augmentation part        6.1946635 magnetization      50.5960079

 Broyden mixing:
  rms(total) = 0.20589E+01    rms(broyden)= 0.20589E+01
  rms(prec ) = 0.20653E+01
  weight for this iteration     100.00

 eigenvalues of (default mixing * dielectric matrix)
  average eigenvalue GAMMA=   1.4029
  0.8145  1.9914

 Free energy of the ion-electron system (eV)
  ---------------------------------------------------
  alpha Z        PSCENC =        76.34746351
  Ewald energy   TEWEN  =    212750.54421994
  -Hartree energ DENC   =   -219902.26703230
  -exchange      EXHF   =         0.00000000
  -V(xc)+E(xc)   XCENC  =       921.08241996
  PAW double counting   =     18074.43824531   -18116.95883791
  entropy T*S    EENTRO =         0.00000000
  eigenvalues    EBANDS =     -3357.20021412
  atomic energy  EATOM  =      9123.59704331
  Solvation  Ediel_sol  =         0.00000000
  ---------------------------------------------------
  free energy    TOTEN  =      -430.41669230 eV

  energy without entropy =     -430.41669230  energy(sigma->0) =     -430.41669230


--------------------------------------------------------------------------------------------------------




--------------------------------------- Iteration      1(   8)  ---------------------------------------


    POTLOK:  cpu time    1.6581: real time    1.6690
    SETDIJ:  cpu time    0.0237: real time    0.0238
     EDDAV:  cpu time  334.5297: real time  335.3296
 BZINTS: Fermi energy: -3.130658;248.000000 electrons
         Band energy:***********;  BLOECHL correction: -0.027350
       DOS:  cpu time    0.0318: real time    0.0319
    CHARGE:  cpu time   21.1818: real time   21.2323
    MIXING:  cpu time    0.0385: real time    0.0386
    --------------------------------------------
      LOOP:  cpu time  357.4636: real time  358.3251

 eigenvalue-minimisations  : 11736
 total energy-change (2. order) :-0.1008043E+02  (-0.2068489E+01)
 number of electron     247.9999996 magnetization      54.1953053
 augmentation part        6.0007263 magnetization      48.9279004

 Broyden mixing:
  rms(total) = 0.14542E+01    rms(broyden)= 0.14542E+01
  rms(prec ) = 0.14559E+01
  weight for this iteration     100.00

 eigenvalues of (default mixing * dielectric matrix)
  average eigenvalue GAMMA=   1.3674
  2.3745  1.0003  0.7274

 Free energy of the ion-electron system (eV)
  ---------------------------------------------------
  alpha Z        PSCENC =        76.34746351
  Ewald energy   TEWEN  =    212750.54421994
  -Hartree energ DENC   =   -220236.80764729
  -exchange      EXHF   =         0.00000000
  -V(xc)+E(xc)   XCENC  =       925.81793647
  PAW double counting   =     25075.88971327   -25120.08623972
  entropy T*S    EENTRO =         0.00000000
  eigenvalues    EBANDS =     -3035.79960940
  atomic energy  EATOM  =      9123.59704331
  Solvation  Ediel_sol  =         0.00000000
  ---------------------------------------------------
  free energy    TOTEN  =      -440.49711991 eV

  energy without entropy =     -440.49711991  energy(sigma->0) =     -440.49711991


--------------------------------------------------------------------------------------------------------




--------------------------------------- Iteration      1(   9)  ---------------------------------------


    POTLOK:  cpu time    1.6754: real time    1.6968
    SETDIJ:  cpu time    0.0241: real time    0.0241
     EDDAV:  cpu time  334.8748: real time  335.6814
 BZINTS: Fermi energy: -2.923323;248.000000 electrons
         Band energy:***********;  BLOECHL correction: -0.010248
       DOS:  cpu time    0.0319: real time    0.0320
    CHARGE:  cpu time   20.6983: real time   20.7474
    MIXING:  cpu time    0.0386: real time    0.0387
    --------------------------------------------
      LOOP:  cpu time  357.3431: real time  358.2204

 eigenvalue-minimisations  : 11556
 total energy-change (2. order) :-0.1576250E+02  (-0.4265244E+00)
 number of electron     247.9999997 magnetization      51.0377616
 augmentation part        5.9587781 magnetization      46.8868062

 Broyden mixing:
  rms(total) = 0.12781E+01    rms(broyden)= 0.12781E+01
  rms(prec ) = 0.12793E+01
  weight for this iteration     100.00

 eigenvalues of (default mixing * dielectric matrix)
  average eigenvalue GAMMA=   1.4455
  2.6789  1.6055  0.8541  0.6435

 Free energy of the ion-electron system (eV)
  ---------------------------------------------------
  alpha Z        PSCENC =        76.34746351
  Ewald energy   TEWEN  =    212750.54421994
  -Hartree energ DENC   =   -220317.63083438
  -exchange      EXHF   =         0.00000000
  -V(xc)+E(xc)   XCENC  =       917.09236536
  PAW double counting   =     26666.04106199   -26709.49664470
  entropy T*S    EENTRO =         0.00000000
  eigenvalues    EBANDS =     -2962.75429748
  atomic energy  EATOM  =      9123.59704331
  Solvation  Ediel_sol  =         0.00000000
  ---------------------------------------------------
  free energy    TOTEN  =      -456.25962246 eV

  energy without entropy =     -456.25962246  energy(sigma->0) =     -456.25962246


--------------------------------------------------------------------------------------------------------




--------------------------------------- Iteration      1(  10)  ---------------------------------------


    POTLOK:  cpu time    1.6506: real time    1.6641
    SETDIJ:  cpu time    0.0243: real time    0.0244
     EDDAV:  cpu time  327.6850: real time  328.4695
 BZINTS: Fermi energy: -2.604085;248.000000 electrons
         Band energy:***********;  BLOECHL correction: -0.021722
       DOS:  cpu time    0.0317: real time    0.0317
    CHARGE:  cpu time   21.7543: real time   21.8057
    MIXING:  cpu time    0.0409: real time    0.0410
    --------------------------------------------
      LOOP:  cpu time  351.1868: real time  352.0364

 eigenvalue-minimisations  : 11112
 total energy-change (2. order) :-0.2747854E+02  (-0.1208042E+01)
 number of electron     247.9999997 magnetization      47.6123357
 augmentation part        5.9399482 magnetization      45.1969694

 Broyden mixing:
  rms(total) = 0.11027E+01    rms(broyden)= 0.11027E+01
  rms(prec ) = 0.11036E+01
  weight for this iteration     100.00

 eigenvalues of (default mixing * dielectric matrix)
  average eigenvalue GAMMA=   1.5066
  3.0805  2.1848  0.9329  0.7087  0.6259

 Free energy of the ion-electron system (eV)
  ---------------------------------------------------
  alpha Z        PSCENC =        76.34746351
  Ewald energy   TEWEN  =    212750.54421994
  -Hartree energ DENC   =   -220402.12373759
  -exchange      EXHF   =         0.00000000
  -V(xc)+E(xc)   XCENC  =       902.07730156
  PAW double counting   =     27693.43514448   -27735.81160973
  entropy T*S    EENTRO =         0.00000000
  eigenvalues    EBANDS =     -2891.80398693
  atomic energy  EATOM  =      9123.59704331
  Solvation  Ediel_sol  =         0.00000000
  ---------------------------------------------------
  free energy    TOTEN  =      -483.73816145 eV

  energy without entropy =     -483.73816145  energy(sigma->0) =     -483.73816145


--------------------------------------------------------------------------------------------------------




--------------------------------------- Iteration      1(  11)  ---------------------------------------


    POTLOK:  cpu time    1.6647: real time    1.6851
    SETDIJ:  cpu time    0.0258: real time    0.0284
     EDDAV:  cpu time  325.6972: real time  326.5155
 BZINTS: Fermi energy: -2.576205;248.000000 electrons
         Band energy:***********;  BLOECHL correction: -0.020984
       DOS:  cpu time    0.0314: real time    0.0315
    CHARGE:  cpu time   22.6918: real time   22.7461
    MIXING:  cpu time    0.0463: real time    0.0464
    --------------------------------------------
      LOOP:  cpu time  350.1572: real time  351.0531

 eigenvalue-minimisations  : 11280
 total energy-change (2. order) :-0.2259948E+02  (-0.1104585E+01)
 number of electron     247.9999996 magnetization      42.8730145
 augmentation part        5.9134327 magnetization      41.4532338

 Broyden mixing:
  rms(total) = 0.93679E+00    rms(broyden)= 0.93679E+00
  rms(prec ) = 0.93740E+00
  weight for this iteration     100.00

 eigenvalues of (default mixing * dielectric matrix)
  average eigenvalue GAMMA=   1.6476
  3.9092  2.4048  1.2529  0.9767  0.7167  0.6255

 Free energy of the ion-electron system (eV)
  ---------------------------------------------------
  alpha Z        PSCENC =        76.34746351
  Ewald energy   TEWEN  =    212750.54421994
  -Hartree energ DENC   =   -220455.13125720
  -exchange      EXHF   =         0.00000000
  -V(xc)+E(xc)   XCENC  =       888.77176519
  PAW double counting   =     27615.45280630   -27657.20458822
  entropy T*S    EENTRO =         0.00000000
  eigenvalues    EBANDS =     -2848.71509379
  atomic energy  EATOM  =      9123.59704331
  Solvation  Ediel_sol  =         0.00000000
  ---------------------------------------------------
  free energy    TOTEN  =      -506.33764097 eV

  energy without entropy =     -506.33764097  energy(sigma->0) =     -506.33764097


--------------------------------------------------------------------------------------------------------




--------------------------------------- Iteration      1(  12)  ---------------------------------------


    POTLOK:  cpu time    1.6445: real time    1.6571
    SETDIJ:  cpu time    0.0251: real time    0.0252
     EDDAV:  cpu time  320.6521: real time  321.4472
 BZINTS: Fermi energy: -2.505512;248.000000 electrons
         Band energy:***********;  BLOECHL correction: -0.017671
       DOS:  cpu time    0.0309: real time    0.0310
    CHARGE:  cpu time   21.5151: real time   21.5667
    MIXING:  cpu time    0.0565: real time    0.0573
    --------------------------------------------
      LOOP:  cpu time  343.9242: real time  344.7844

 eigenvalue-minimisations  : 10896
 total energy-change (2. order) :-0.2644040E+02  (-0.2248035E+01)
 number of electron     247.9999996 magnetization      37.9004757
 augmentation part        5.8671081 magnetization      37.3865298

 Broyden mixing:
  rms(total) = 0.75009E+00    rms(broyden)= 0.75009E+00
  rms(prec ) = 0.75101E+00
  weight for this iteration     100.00

 eigenvalues of (default mixing * dielectric matrix)
  average eigenvalue GAMMA=   1.9397
  6.0781  2.5145  1.7831  0.9851  0.8037  0.8037  0.6094

 Free energy of the ion-electron system (eV)
  ---------------------------------------------------
  alpha Z        PSCENC =        76.34746351
  Ewald energy   TEWEN  =    212750.54421994
  -Hartree energ DENC   =   -220484.58660832
  -exchange      EXHF   =         0.00000000
  -V(xc)+E(xc)   XCENC  =       872.97348443
  PAW double counting   =     26446.54506204   -26488.36658060
  entropy T*S    EENTRO =         0.00000000
  eigenvalues    EBANDS =     -2829.83212513
  atomic energy  EATOM  =      9123.59704331
  Solvation  Ediel_sol  =         0.00000000
  ---------------------------------------------------
  free energy    TOTEN  =      -532.77804083 eV

  energy without entropy =     -532.77804083  energy(sigma->0) =     -532.77804083


--------------------------------------------------------------------------------------------------------




--------------------------------------- Iteration      1(  13)  ---------------------------------------


    POTLOK:  cpu time    1.8662: real time    1.8816
    SETDIJ:  cpu time    0.0292: real time    0.0307
     EDDAV:  cpu time  324.0822: real time  324.8870
 BZINTS: Fermi energy: -2.413804;248.000000 electrons
         Band energy:***********;  BLOECHL correction:  0.000000
       DOS:  cpu time    0.0066: real time    0.0066
    CHARGE:  cpu time   21.0219: real time   21.0716
    MIXING:  cpu time    0.0420: real time    0.0421
    --------------------------------------------
      LOOP:  cpu time  347.0480: real time  347.9196

 eigenvalue-minimisations  : 11148
 total energy-change (2. order) :-0.1298004E+02  (-0.1213340E+01)
 number of electron     247.9999996 magnetization      35.5792983
 augmentation part        5.8437269 magnetization      35.5193821

 Broyden mixing:
  rms(total) = 0.62603E+00    rms(broyden)= 0.62603E+00
  rms(prec ) = 0.62686E+00
  weight for this iteration     100.00

 eigenvalues of (default mixing * dielectric matrix)
  average eigenvalue GAMMA=   2.1115
  8.1618  2.4171  2.1617  1.0165  1.0165  0.7722  0.7361  0.6100

 Free energy of the ion-electron system (eV)
  ---------------------------------------------------
  alpha Z        PSCENC =        76.34746351
  Ewald energy   TEWEN  =    212750.54421994
  -Hartree energ DENC   =   -220496.92896445
  -exchange      EXHF   =         0.00000000
  -V(xc)+E(xc)   XCENC  =       864.48756191
  PAW double counting   =     25589.20685273   -25631.12795561
  entropy T*S    EENTRO =         0.00000000
  eigenvalues    EBANDS =     -2821.88429995
  atomic energy  EATOM  =      9123.59704331
  Solvation  Ediel_sol  =         0.00000000
  ---------------------------------------------------
  free energy    TOTEN  =      -545.75807861 eV

  energy without entropy =     -545.75807861  energy(sigma->0) =     -545.75807861


--------------------------------------------------------------------------------------------------------




--------------------------------------- Iteration      1(  14)  ---------------------------------------


    POTLOK:  cpu time    1.6572: real time    1.6704
    SETDIJ:  cpu time    0.0261: real time    0.0261
     EDDAV:  cpu time  328.4133: real time  329.2105
 BZINTS: Fermi energy: -2.508489;248.000000 electrons
         Band energy:***********;  BLOECHL correction:  0.000000
       DOS:  cpu time    0.0064: real time    0.0064
    CHARGE:  cpu time   22.5341: real time   22.5886
    MIXING:  cpu time    0.0466: real time    0.0467
    --------------------------------------------
      LOOP:  cpu time  352.6837: real time  353.5488

 eigenvalue-minimisations  : 11280
 total energy-change (2. order) :-0.3902924E+01  (-0.1792929E+00)
 number of electron     247.9999996 magnetization      32.3561607
 augmentation part        5.8334358 magnetization      32.3173283

 Broyden mixing:
  rms(total) = 0.57441E+00    rms(broyden)= 0.57441E+00
  rms(prec ) = 0.57508E+00
  weight for this iteration     100.00

 eigenvalues of (default mixing * dielectric matrix)
  average eigenvalue GAMMA=   2.1912
  9.5043  2.4665  2.4665  1.3547  0.9686  0.8177  0.8177  0.7154  0.6096

 Free energy of the ion-electron system (eV)
  ---------------------------------------------------
  alpha Z        PSCENC =        76.34746351
  Ewald energy   TEWEN  =    212750.54421994
  -Hartree energ DENC   =   -220483.89434397
  -exchange      EXHF   =         0.00000000
  -V(xc)+E(xc)   XCENC  =       861.14250028
  PAW double counting   =     25495.27562953   -25537.28866868
  entropy T*S    EENTRO =         0.00000000
  eigenvalues    EBANDS =     -2835.38484677
  atomic energy  EATOM  =      9123.59704331
  Solvation  Ediel_sol  =         0.00000000
  ---------------------------------------------------
  free energy    TOTEN  =      -549.66100285 eV

  energy without entropy =     -549.66100285  energy(sigma->0) =     -549.66100285


--------------------------------------------------------------------------------------------------------




--------------------------------------- Iteration      1(  15)  ---------------------------------------


    POTLOK:  cpu time    1.6771: real time    1.6918
    SETDIJ:  cpu time    0.0269: real time    0.0288
     EDDAV:  cpu time  320.1611: real time  320.9304
 BZINTS: Fermi energy: -2.742766;248.000000 electrons
         Band energy:***********;  BLOECHL correction:  0.000000
       DOS:  cpu time    0.0058: real time    0.0058
    CHARGE:  cpu time   20.6627: real time   20.7118
    MIXING:  cpu time    0.0480: real time    0.0481
    --------------------------------------------
      LOOP:  cpu time  342.5816: real time  343.4167

 eigenvalue-minimisations  : 10992
 total energy-change (2. order) :-0.2789376E+01  (-0.9889784E-01)
 number of electron     247.9999996 magnetization      27.7238816
 augmentation part        5.8304527 magnetization      27.6985567

 Broyden mixing:
  rms(total) = 0.51657E+00    rms(broyden)= 0.51657E+00
  rms(prec ) = 0.51693E+00
  weight for this iteration     100.00

 eigenvalues of (default mixing * dielectric matrix)
  average eigenvalue GAMMA=   2.2417
 10.4963  2.9083  2.3518  1.8055  0.9801  0.9801  0.7954  0.7954  0.6139  0.6901

 Free energy of the ion-electron system (eV)
  ---------------------------------------------------
  alpha Z        PSCENC =        76.34746351
  Ewald energy   TEWEN  =    212750.54421994
  -Hartree energ DENC   =   -220433.89573781
  -exchange      EXHF   =         0.00000000
  -V(xc)+E(xc)   XCENC  =       858.37980828
  PAW double counting   =     25405.32493286   -25447.42209400
  entropy T*S    EENTRO =         0.00000000
  eigenvalues    EBANDS =     -2885.32601534
  atomic energy  EATOM  =      9123.59704331
  Solvation  Ediel_sol  =         0.00000000
  ---------------------------------------------------
  free energy    TOTEN  =      -552.45037926 eV

  energy without entropy =     -552.45037926  energy(sigma->0) =     -552.45037926


--------------------------------------------------------------------------------------------------------




--------------------------------------- Iteration      1(  16)  ---------------------------------------


    POTLOK:  cpu time    1.6638: real time    1.6759
    SETDIJ:  cpu time    0.0233: real time    0.0233
     EDDAV:  cpu time  313.8475: real time  314.6105
 BZINTS: Fermi energy: -3.020347;248.000000 electrons
         Band energy:***********;  BLOECHL correction:  0.000000
       DOS:  cpu time    0.0064: real time    0.0064
    CHARGE:  cpu time   22.0788: real time   22.1335
    MIXING:  cpu time    0.0487: real time    0.0581
    --------------------------------------------
      LOOP:  cpu time  337.6685: real time  338.5076

 eigenvalue-minimisations  : 10596
 total energy-change (2. order) :-0.1740485E+01  (-0.7422682E-01)
 number of electron     247.9999996 magnetization      22.0293522
 augmentation part        5.8333498 magnetization      22.0113779

 Broyden mixing:
  rms(total) = 0.45354E+00    rms(broyden)= 0.45354E+00
  rms(prec ) = 0.45380E+00
  weight for this iteration     100.00

 eigenvalues of (default mixing * dielectric matrix)
  average eigenvalue GAMMA=   2.2977
 11.2177  3.6080  2.4197  2.1293  1.2369  0.8846  0.8642  0.8642  0.7699  0.6228
  0.6581

 Free energy of the ion-electron system (eV)
  ---------------------------------------------------
  alpha Z        PSCENC =        76.34746351
  Ewald energy   TEWEN  =    212750.54421994
  -Hartree energ DENC   =   -220366.72624860
  -exchange      EXHF   =         0.00000000
  -V(xc)+E(xc)   XCENC  =       856.19198879
  PAW double counting   =     25359.64005651   -25401.69080456
  entropy T*S    EENTRO =         0.00000000
  eigenvalues    EBANDS =     -2952.09458282
  atomic energy  EATOM  =      9123.59704331
  Solvation  Ediel_sol  =         0.00000000
  ---------------------------------------------------
  free energy    TOTEN  =      -554.19086391 eV

  energy without entropy =     -554.19086391  energy(sigma->0) =     -554.19086391


--------------------------------------------------------------------------------------------------------




--------------------------------------- Iteration      1(  17)  ---------------------------------------


    POTLOK:  cpu time    1.7878: real time    1.7999
    SETDIJ:  cpu time    0.0249: real time    0.0250
     EDDAV:  cpu time  321.2504: real time  322.0769
 BZINTS: Fermi energy: -3.294147;248.000000 electrons
         Band energy:***********;  BLOECHL correction:  0.000000
       DOS:  cpu time    0.0066: real time    0.0066
    CHARGE:  cpu time   22.2204: real time   22.2797
    MIXING:  cpu time    0.0507: real time    0.0508
    --------------------------------------------
      LOOP:  cpu time  345.3409: real time  346.2389

 eigenvalue-minimisations  : 10944
 total energy-change (2. order) :-0.6666026E+00  (-0.4622284E-01)
 number of electron     247.9999996 magnetization      14.5006099
 augmentation part        5.8327195 magnetization      14.4876167

 Broyden mixing:
  rms(total) = 0.37908E+00    rms(broyden)= 0.37908E+00
  rms(prec ) = 0.37944E+00
  weight for this iteration     100.00

 eigenvalues of (default mixing * dielectric matrix)
  average eigenvalue GAMMA=   2.4631
 12.2688  5.1975  2.5166  2.2811  1.6670  1.0084  0.9351  0.9351  0.7451  0.7451
  0.6285  0.6285

 Free energy of the ion-electron system (eV)
  ---------------------------------------------------
  alpha Z        PSCENC =        76.34746351
  Ewald energy   TEWEN  =    212750.54421994
  -Hartree energ DENC   =   -220294.26726484
  -exchange      EXHF   =         0.00000000
  -V(xc)+E(xc)   XCENC  =       855.36964380
  PAW double counting   =     25564.42638374   -25606.45590597
  entropy T*S    EENTRO =         0.00000000
  eigenvalues    EBANDS =     -3024.41905006
  atomic energy  EATOM  =      9123.59704331
  Solvation  Ediel_sol  =         0.00000000
  ---------------------------------------------------
  free energy    TOTEN  =      -554.85746656 eV

  energy without entropy =     -554.85746656  energy(sigma->0) =     -554.85746656


--------------------------------------------------------------------------------------------------------




--------------------------------------- Iteration      1(  18)  ---------------------------------------


    POTLOK:  cpu time    1.6485: real time    1.6605
    SETDIJ:  cpu time    0.0242: real time    0.0242
     EDDAV:  cpu time  321.8428: real time  322.6905
 BZINTS: Fermi energy: -3.576134;248.000000 electrons
         Band energy:***********;  BLOECHL correction:  0.000000
       DOS:  cpu time    0.0064: real time    0.0064
    CHARGE:  cpu time   20.6166: real time   20.6653
    MIXING:  cpu time    0.0533: real time    0.0535
    --------------------------------------------
      LOOP:  cpu time  344.1918: real time  345.1004

 eigenvalue-minimisations  : 11148
 total energy-change (2. order) :-0.1955454E+01  (-0.4298210E-01)
 number of electron     247.9999996 magnetization       8.1960737
 augmentation part        5.8319476 magnetization       8.1871751

 Broyden mixing:
  rms(total) = 0.28258E+00    rms(broyden)= 0.28258E+00
  rms(prec ) = 0.28341E+00
  weight for this iteration     100.00

 eigenvalues of (default mixing * dielectric matrix)
  average eigenvalue GAMMA=   2.7331
 14.5794  7.2596  2.5645  2.5645  1.9291  1.2197  0.9261  0.9261  0.8137  0.7873
  0.7163  0.6219  0.6219

 Free energy of the ion-electron system (eV)
  ---------------------------------------------------
  alpha Z        PSCENC =        76.34746351
  Ewald energy   TEWEN  =    212750.54421994
  -Hartree energ DENC   =   -220218.74389851
  -exchange      EXHF   =         0.00000000
  -V(xc)+E(xc)   XCENC  =       853.39590507
  PAW double counting   =     25716.07524508   -25758.10150753
  entropy T*S    EENTRO =         0.00000000
  eigenvalues    EBANDS =     -3099.92739102
  atomic energy  EATOM  =      9123.59704331
  Solvation  Ediel_sol  =         0.00000000
  ---------------------------------------------------
  free energy    TOTEN  =      -556.81292016 eV

  energy without entropy =     -556.81292016  energy(sigma->0) =     -556.81292016


--------------------------------------------------------------------------------------------------------




--------------------------------------- Iteration      1(  19)  ---------------------------------------


    POTLOK:  cpu time    1.6497: real time    1.6627
    SETDIJ:  cpu time    0.0240: real time    0.0240
     EDDAV:  cpu time  317.7029: real time  318.4767
 BZINTS: Fermi energy: -3.692745;248.000000 electrons
         Band energy:***********;  BLOECHL correction:  0.000000
       DOS:  cpu time    0.0064: real time    0.0065
    CHARGE:  cpu time   21.8059: real time   21.8593
    MIXING:  cpu time    0.0597: real time    0.0599
    --------------------------------------------
      LOOP:  cpu time  341.2487: real time  342.0890

 eigenvalue-minimisations  : 10752
 total energy-change (2. order) : 0.4369803E+00  (-0.9414912E-02)
 number of electron     247.9999996 magnetization       3.2745717
 augmentation part        5.8337966 magnetization       3.2700716

 Broyden mixing:
  rms(total) = 0.19355E+00    rms(broyden)= 0.19355E+00
  rms(prec ) = 0.19482E+00
  weight for this iteration     100.00

 eigenvalues of (default mixing * dielectric matrix)
  average eigenvalue GAMMA=   3.1404
 19.3470  8.9176  3.1067  2.4763  2.1971  1.5096  1.0652  0.9495  0.9495  0.7664
  0.7664  0.6712  0.6215  0.6215

 Free energy of the ion-electron system (eV)
  ---------------------------------------------------
  alpha Z        PSCENC =        76.34746351
  Ewald energy   TEWEN  =    212750.54421994
  -Hartree energ DENC   =   -220182.75538751
  -exchange      EXHF   =         0.00000000
  -V(xc)+E(xc)   XCENC  =       853.82945034
  PAW double counting   =     25692.10015797   -25734.10728544
  entropy T*S    EENTRO =         0.00000000
  eigenvalues    EBANDS =     -3135.93160193
  atomic energy  EATOM  =      9123.59704331
  Solvation  Ediel_sol  =         0.00000000
  ---------------------------------------------------
  free energy    TOTEN  =      -556.37593981 eV

  energy without entropy =     -556.37593981  energy(sigma->0) =     -556.37593981


--------------------------------------------------------------------------------------------------------




--------------------------------------- Iteration      1(  20)  ---------------------------------------


    POTLOK:  cpu time    1.8084: real time    1.8197
    SETDIJ:  cpu time    0.0306: real time    0.0322
     EDDAV:  cpu time  302.7745: real time  303.5032
 BZINTS: Fermi energy: -3.751267;248.000000 electrons
         Band energy:***********;  BLOECHL correction:  0.000000
       DOS:  cpu time    0.0064: real time    0.0064
    CHARGE:  cpu time   21.5574: real time   21.6109
    MIXING:  cpu time    0.0498: real time    0.0499
    --------------------------------------------
      LOOP:  cpu time  326.2272: real time  327.0225

 eigenvalue-minimisations  : 10284
 total energy-change (2. order) :-0.1966178E+00  (-0.5015979E-02)
 number of electron     247.9999996 magnetization       1.0806302
 augmentation part        5.8317058 magnetization       1.0782874

 Broyden mixing:
  rms(total) = 0.10718E+00    rms(broyden)= 0.10718E+00
  rms(prec ) = 0.10865E+00
  weight for this iteration     100.00

 eigenvalues of (default mixing * dielectric matrix)
  average eigenvalue GAMMA=   3.6536
 27.0751  9.8868  3.7665  2.4272  2.4272  1.8163  1.1606  0.9307  0.9307  0.9575
  0.7602  0.7602  0.6597  0.6305  0.6146

 Free energy of the ion-electron system (eV)
  ---------------------------------------------------
  alpha Z        PSCENC =        76.34746351
  Ewald energy   TEWEN  =    212750.54421994
  -Hartree energ DENC   =   -220187.59439931
  -exchange      EXHF   =         0.00000000
  -V(xc)+E(xc)   XCENC  =       853.97958341
  PAW double counting   =     25687.23313298   -25729.24457757
  entropy T*S    EENTRO =         0.00000000
  eigenvalues    EBANDS =     -3131.43502388
  atomic energy  EATOM  =      9123.59704331
  Solvation  Ediel_sol  =         0.00000000
  ---------------------------------------------------
  free energy    TOTEN  =      -556.57255762 eV

  energy without entropy =     -556.57255762  energy(sigma->0) =     -556.57255762


--------------------------------------------------------------------------------------------------------




--------------------------------------- Iteration      1(  21)  ---------------------------------------


    POTLOK:  cpu time    1.6647: real time    1.6746
    SETDIJ:  cpu time    0.0245: real time    0.0246
     EDDAV:  cpu time  319.6949: real time  320.4670
 BZINTS: Fermi energy: -3.660892;248.000000 electrons
         Band energy:***********;  BLOECHL correction:  0.000000
       DOS:  cpu time    0.0064: real time    0.0065
    CHARGE:  cpu time   21.4498: real time   21.5009
    MIXING:  cpu time    0.0572: real time    0.0573
    --------------------------------------------
      LOOP:  cpu time  342.8975: real time  343.7309

 eigenvalue-minimisations  : 10896
 total energy-change (2. order) :-0.6557871E+00  (-0.3348995E-02)
 number of electron     247.9999996 magnetization       0.2706611
 augmentation part        5.8298318 magnetization       0.2692861

 Broyden mixing:
  rms(total) = 0.52528E-01    rms(broyden)= 0.52528E-01
  rms(prec ) = 0.54055E-01
  weight for this iteration     100.00

 eigenvalues of (default mixing * dielectric matrix)
  average eigenvalue GAMMA=   4.0762
 34.8067 10.3734  4.4112  2.6507  2.3566  2.0692  1.3583  1.0991  0.9496  0.9496
  0.7748  0.7748  0.7458  0.6549  0.6317  0.6135

 Free energy of the ion-electron system (eV)
  ---------------------------------------------------
  alpha Z        PSCENC =        76.34746351
  Ewald energy   TEWEN  =    212750.54421994
  -Hartree energ DENC   =   -220207.16679378
  -exchange      EXHF   =         0.00000000
  -V(xc)+E(xc)   XCENC  =       853.46826958
  PAW double counting   =     25619.03880341   -25661.04690405
  entropy T*S    EENTRO =         0.00000000
  eigenvalues    EBANDS =     -3112.01044664
  atomic energy  EATOM  =      9123.59704331
  Solvation  Ediel_sol  =         0.00000000
  ---------------------------------------------------
  free energy    TOTEN  =      -557.22834473 eV

  energy without entropy =     -557.22834473  energy(sigma->0) =     -557.22834473


--------------------------------------------------------------------------------------------------------




--------------------------------------- Iteration      1(  22)  ---------------------------------------


    POTLOK:  cpu time    1.7017: real time    1.7201
    SETDIJ:  cpu time    0.0246: real time    0.0247
     EDDAV:  cpu time  313.9245: real time  314.6920
 BZINTS: Fermi energy: -3.574069;248.000000 electrons
         Band energy:***********;  BLOECHL correction:  0.000000
       DOS:  cpu time    0.0079: real time    0.0079
    CHARGE:  cpu time   22.7979: real time   22.8531
    MIXING:  cpu time    0.0623: real time    0.0624
    --------------------------------------------
      LOOP:  cpu time  338.5188: real time  339.3602

 eigenvalue-minimisations  : 10596
 total energy-change (2. order) :-0.3836077E+00  (-0.1711970E-02)
 number of electron     247.9999996 magnetization       0.0689025
 augmentation part        5.8297095 magnetization       0.0687589

 Broyden mixing:
  rms(total) = 0.24485E-01    rms(broyden)= 0.24485E-01
  rms(prec ) = 0.25986E-01
  weight for this iteration     100.00

 eigenvalues of (default mixing * dielectric matrix)
  average eigenvalue GAMMA=   4.1854
 38.6013 10.6655  4.7827  2.6163  2.6163  2.0975  1.5968  1.0828  1.0828  0.9355
  0.9355  0.7646  0.7646  0.7189  0.6392  0.6392  0.6118

 Free energy of the ion-electron system (eV)
  ---------------------------------------------------
  alpha Z        PSCENC =        76.34746351
  Ewald energy   TEWEN  =    212750.54421994
  -Hartree energ DENC   =   -220224.75031093
  -exchange      EXHF   =         0.00000000
  -V(xc)+E(xc)   XCENC  =       853.07182299
  PAW double counting   =     25565.10490961   -25607.09520075
  entropy T*S    EENTRO =         0.00000000
  eigenvalues    EBANDS =     -3094.43190011
  atomic energy  EATOM  =      9123.59704331
  Solvation  Ediel_sol  =         0.00000000
  ---------------------------------------------------
  free energy    TOTEN  =      -557.61195244 eV

  energy without entropy =     -557.61195244  energy(sigma->0) =     -557.61195244


--------------------------------------------------------------------------------------------------------




--------------------------------------- Iteration      1(  23)  ---------------------------------------


    POTLOK:  cpu time    1.7090: real time    1.7218
    SETDIJ:  cpu time    0.0249: real time    0.0250
     EDDAV:  cpu time  309.5505: real time  310.2948
 BZINTS: Fermi energy: -3.545618;248.000000 electrons
         Band energy:***********;  BLOECHL correction:  0.000000
       DOS:  cpu time    0.0064: real time    0.0064
    CHARGE:  cpu time   20.5896: real time   20.6382
    MIXING:  cpu time    0.0629: real time    0.0631
    --------------------------------------------
      LOOP:  cpu time  331.9433: real time  332.7493

 eigenvalue-minimisations  : 10416
 total energy-change (2. order) :-0.3420415E-01  (-0.6882003E-03)
 number of electron     247.9999996 magnetization       0.0259365
 augmentation part        5.8289651 magnetization       0.0260196

 Broyden mixing:
  rms(total) = 0.11644E-01    rms(broyden)= 0.11644E-01
  rms(prec ) = 0.13221E-01
  weight for this iteration     100.00

 eigenvalues of (default mixing * dielectric matrix)
  average eigenvalue GAMMA=   4.1017
 39.6215 10.7352  4.9544  2.7419  2.6227  2.1911  1.7883  1.1561  1.1561  0.9472
  0.9472  0.8648  0.7656  0.7656  0.6126  0.6405  0.6405  0.6795

 Free energy of the ion-electron system (eV)
  ---------------------------------------------------
  alpha Z        PSCENC =        76.34746351
  Ewald energy   TEWEN  =    212750.54421994
  -Hartree energ DENC   =   -220237.26523261
  -exchange      EXHF   =         0.00000000
  -V(xc)+E(xc)   XCENC  =       853.07251975
  PAW double counting   =     25577.96985486   -25619.95794204
  entropy T*S    EENTRO =         0.00000000
  eigenvalues    EBANDS =     -3081.95408330
  atomic energy  EATOM  =      9123.59704331
  Solvation  Ediel_sol  =         0.00000000
  ---------------------------------------------------
  free energy    TOTEN  =      -557.64615659 eV

  energy without entropy =     -557.64615659  energy(sigma->0) =     -557.64615659


--------------------------------------------------------------------------------------------------------




--------------------------------------- Iteration      1(  24)  ---------------------------------------


    POTLOK:  cpu time    1.6660: real time    1.6776
    SETDIJ:  cpu time    0.0272: real time    0.0273
     EDDAV:  cpu time  303.6882: real time  304.4183
 BZINTS: Fermi energy: -3.497808;248.000000 electrons
         Band energy:***********;  BLOECHL correction:  0.000000
       DOS:  cpu time    0.0064: real time    0.0064
    CHARGE:  cpu time   22.6048: real time   22.6593
    MIXING:  cpu time    0.0681: real time    0.0682
    --------------------------------------------
      LOOP:  cpu time  328.0607: real time  328.8571

 eigenvalue-minimisations  : 10356
 total energy-change (2. order) :-0.6169504E-01  (-0.3346493E-03)
 number of electron     247.9999996 magnetization       0.0098279
 augmentation part        5.8286175 magnetization       0.0098159

 Broyden mixing:
  rms(total) = 0.65806E-02    rms(broyden)= 0.65806E-02
  rms(prec ) = 0.80578E-02
  weight for this iteration     100.00

 eigenvalues of (default mixing * dielectric matrix)
  average eigenvalue GAMMA=   3.9893
 39.9159 10.7479  5.0670  3.0329  2.4192  2.4192  1.9156  1.2736  1.2116  1.0322
  0.9515  0.9515  0.7677  0.7677  0.7690  0.6129  0.6335  0.6464  0.6613

 Free energy of the ion-electron system (eV)
  ---------------------------------------------------
  alpha Z        PSCENC =        76.34746351
  Ewald energy   TEWEN  =    212750.54421994
  -Hartree energ DENC   =   -220245.70690341
  -exchange      EXHF   =         0.00000000
  -V(xc)+E(xc)   XCENC  =       853.01459408
  PAW double counting   =     25575.67502762   -25617.66282683
  entropy T*S    EENTRO =         0.00000000
  eigenvalues    EBANDS =     -3073.51646985
  atomic energy  EATOM  =      9123.59704331
  Solvation  Ediel_sol  =         0.00000000
  ---------------------------------------------------
  free energy    TOTEN  =      -557.70785163 eV

  energy without entropy =     -557.70785163  energy(sigma->0) =     -557.70785163


--------------------------------------------------------------------------------------------------------




--------------------------------------- Iteration      1(  25)  ---------------------------------------


    POTLOK:  cpu time    1.7099: real time    1.7276
    SETDIJ:  cpu time    0.0266: real time    0.0266
     EDDAV:  cpu time  310.7128: real time  311.4547
 BZINTS: Fermi energy: -3.450399;248.000000 electrons
         Band energy:***********;  BLOECHL correction:  0.000000
       DOS:  cpu time    0.0061: real time    0.0061
    CHARGE:  cpu time   20.8111: real time   20.8603
    MIXING:  cpu time    0.0778: real time    0.0780
    --------------------------------------------
      LOOP:  cpu time  333.3442: real time  334.1533

 eigenvalue-minimisations  : 10680
 total energy-change (2. order) :-0.2343319E-01  (-0.1538166E-03)
 number of electron     247.9999996 magnetization       0.0053131
 augmentation part        5.8284396 magnetization       0.0053684

 Broyden mixing:
  rms(total) = 0.41128E-02    rms(broyden)= 0.41127E-02
  rms(prec ) = 0.53495E-02
  weight for this iteration     100.00

 eigenvalues of (default mixing * dielectric matrix)
  average eigenvalue GAMMA=   3.8719
 39.9900 10.7575  5.1268  3.1778  2.4945  2.4945  1.9824  1.5490  1.1067  1.1067
  0.9465  0.9465  0.9678  0.7655  0.7655  0.7252  0.6506  0.6506  0.6175  0.6175

 Free energy of the ion-electron system (eV)
  ---------------------------------------------------
  alpha Z        PSCENC =        76.34746351
  Ewald energy   TEWEN  =    212750.54421994
  -Hartree energ DENC   =   -220252.85745921
  -exchange      EXHF   =         0.00000000
  -V(xc)+E(xc)   XCENC  =       852.99931804
  PAW double counting   =     25573.76741959   -25615.75450306
  entropy T*S    EENTRO =         0.00000000
  eigenvalues    EBANDS =     -3066.37478694
  atomic energy  EATOM  =      9123.59704331
  Solvation  Ediel_sol  =         0.00000000
  ---------------------------------------------------
  free energy    TOTEN  =      -557.73128482 eV

  energy without entropy =     -557.73128482  energy(sigma->0) =     -557.73128482


--------------------------------------------------------------------------------------------------------




--------------------------------------- Iteration      1(  26)  ---------------------------------------


    POTLOK:  cpu time    1.7626: real time    1.7767
    SETDIJ:  cpu time    0.0291: real time    0.0292
     EDDAV:  cpu time  321.6351: real time  322.4327
 BZINTS: Fermi energy: -3.462335;248.000000 electrons
         Band energy:***********;  BLOECHL correction:  0.000000
       DOS:  cpu time    0.0064: real time    0.0064
    CHARGE:  cpu time   20.8362: real time   20.8857
    MIXING:  cpu time    0.0779: real time    0.0798
    --------------------------------------------
      LOOP:  cpu time  344.3474: real time  345.2105

 eigenvalue-minimisations  : 10704
 total energy-change (2. order) :-0.5866622E-02  (-0.7339337E-04)
 number of electron     247.9999996 magnetization       0.0032345
 augmentation part        5.8282308 magnetization       0.0032494

 Broyden mixing:
  rms(total) = 0.29004E-02    rms(broyden)= 0.29004E-02
  rms(prec ) = 0.38093E-02
  weight for this iteration     100.00

 eigenvalues of (default mixing * dielectric matrix)
  average eigenvalue GAMMA=   3.7750
 40.0148 10.7564  5.1755  3.3907  2.5715  2.5715  1.9233  1.9233  1.1964  1.1964
  0.9602  0.9602  1.0053  0.8676  0.7667  0.7667  0.7074  0.6455  0.6455  0.6145
  0.6145

 Free energy of the ion-electron system (eV)
  ---------------------------------------------------
  alpha Z        PSCENC =        76.34746351
  Ewald energy   TEWEN  =    212750.54421994
  -Hartree energ DENC   =   -220258.94850576
  -exchange      EXHF   =         0.00000000
  -V(xc)+E(xc)   XCENC  =       853.01176768
  PAW double counting   =     25575.83229302   -25617.81856953
  entropy T*S    EENTRO =         0.00000000
  eigenvalues    EBANDS =     -3060.30286361
  atomic energy  EATOM  =      9123.59704331
  Solvation  Ediel_sol  =         0.00000000
  ---------------------------------------------------
  free energy    TOTEN  =      -557.73715145 eV

  energy without entropy =     -557.73715145  energy(sigma->0) =     -557.73715145


--------------------------------------------------------------------------------------------------------




--------------------------------------- Iteration      1(  27)  ---------------------------------------


    POTLOK:  cpu time    1.6702: real time    1.6801
    SETDIJ:  cpu time    0.0258: real time    0.0258
     EDDAV:  cpu time  307.0945: real time  307.8285
 BZINTS: Fermi energy: -3.444888;248.000000 electrons
[...]
   C          34.849          3.421         10.377          0.865
   C          35.343          3.429         10.450          0.871
   C          35.562          3.432         10.483          0.874
   C          37.298          3.460         10.736          0.895
   C          37.302          3.460         10.736          0.895
   C          35.563          3.432         10.483          0.874
   C          36.565          3.448         10.630          0.886
   C          35.300          3.428         10.444          0.870
   C          34.351          3.413         10.303          0.859
   C          35.254          3.427         10.437          0.870
   C          34.346          3.412         10.302          0.859
   C          34.193          3.410         10.279          0.857
   C          34.127          3.409         10.269          0.856
   C          34.395          3.413         10.309          0.859
   C          34.403          3.413         10.311          0.859
   C          34.403          3.413         10.311          0.859
   C          34.397          3.413         10.310          0.859
   C          35.343          3.429         10.450          0.871
   C          34.852          3.421         10.378          0.865
   C          34.611          3.417         10.342          0.862
   C          34.263          3.411         10.290          0.857
   C          35.257          3.427         10.438          0.870
   C          34.349          3.413         10.303          0.859
   C          34.195          3.410         10.279          0.857
   C          34.130          3.409         10.270          0.856
   C          34.224          3.410         10.284          0.857
   C          34.127          3.409         10.269          0.856
   C          34.132          3.409         10.270          0.856
   C          34.071          3.408         10.261          0.855

  IVDW = 202
  VDW_RADIUS =    50.000 A
  VDW_SR =     0.830
  VDW_D =     6.000
  SCSRAD =   120.000 A
  LSCSGRAD = T
  LSCALER0 = T
  Edisp (eV):   -7.29689
    FORVDW:  cpu time  105.5690: real time  105.8655

  FORCE on cell =-STRESS in cart. coord.  units (eV):
  Direction    XX          YY          ZZ          XY          YZ          ZX
  --------------------------------------------------------------------------------------
  Alpha Z    76.34746    76.34746    76.34746
  Ewald  220561.45079220551.38935************     8.75624   904.11104  1525.21723
  Hartree219668.19874219652.31217************    13.03060   819.52332  1380.57277
  E(xc)    -921.18909  -921.14125  -949.56395    -0.04086     0.35129     0.60053
  Local  ************************444281.48436   -23.61876 -1717.76381 -2895.76590
  n-local  -211.36574  -210.61391  -196.13106    -0.64641    -0.77308    -1.33157
  augment   -23.59848   -23.62102   -21.83210     0.01787    -0.00624    -0.00829
  Kinetic  3738.45296  3734.97004  4219.52408     2.89580    -5.29003    -9.03134
  Fock        0.00000     0.00000     0.00000     0.00000     0.00000     0.00000
  vdW        -7.64514    -7.60672    -4.16167    -0.03207    -0.03403    -0.05859
  -------------------------------------------------------------------------------------
  Total      -0.25208    -0.54153    -0.38762     0.36243     0.11847     0.19484
  in kB      -0.09765    -0.20977    -0.15015     0.14040     0.04589     0.07548
  external pressure =       -0.15 kB  Pullay stress =        0.00 kB


 VOLUME and BASIS-vectors are now :
 -----------------------------------------------------------------------------
  energy-cutoff  :      850.00
  volume of cell :     4135.99
      direct lattice vectors                 reciprocal lattice vectors
     9.777937446 -0.040258176  0.028975538     0.102031022 -0.058444566 -0.000201094
     4.860691242  8.485568734  0.029419213     0.000484688  0.117570229 -0.000210201
     0.148596923  0.088301621 49.731656900    -0.000059734 -0.000035498  0.020108158

  length of vectors
     9.778063254  9.779164666 49.731957294     0.117584596  0.117571416  0.020108278


 FORCES acting on ions
    electron-ion (+dipol)            ewald-force                    non-local-force                 convergence-correction
 -----------------------------------------------------------------------------------------------
   -.113E+00 -.153E+00 0.539E+03   0.271E+00 0.248E+00 -.540E+03   -.165E+00 -.910E-01 0.522E+00   -.694E-06 -.410E-06 0.111E-05
   -.670E+01 -.397E+01 0.509E+03   0.673E+01 0.398E+01 -.509E+03   -.186E-01 -.161E-01 -.653E+00   0.494E-06 0.270E-06 0.113E-05
   -.284E+01 -.163E+01 -.512E+03   0.277E+01 0.160E+01 0.512E+03   -.586E-02 -.221E-02 -.183E+00   0.286E-06 0.172E-06 -.106E-05
   -.292E+01 -.169E+01 -.512E+03   0.312E+01 0.180E+01 0.511E+03   -.118E+00 -.724E-01 0.107E+00   -.571E-06 -.330E-06 -.129E-05
   -.248E+01 -.795E+01 0.510E+03   0.246E+01 0.792E+01 -.510E+03   0.267E-02 0.160E-01 0.286E+00   0.607E-06 0.758E-06 0.115E-05
   -.708E+01 -.112E+01 0.502E+03   0.718E+01 0.117E+01 -.502E+03   -.754E-01 -.144E-01 -.187E+00   0.330E-06 0.506E-06 0.119E-05
   -.652E+01 -.628E+01 -.509E+03   0.652E+01 0.616E+01 0.510E+03   0.265E-02 0.798E-01 -.101E+00   -.682E-06 -.445E-07 -.138E-05
   -.235E+02 -.325E+00 -.485E+03   0.238E+02 0.113E+00 0.484E+03   -.234E+00 0.191E+00 0.281E+00   -.772E-07 0.790E-07 -.986E-06
   -.180E+01 -.142E+01 0.508E+03   0.169E+01 0.143E+01 -.508E+03   0.925E-01 -.738E-01 0.791E-01   0.352E-06 0.829E-07 0.131E-05
   -.132E+02 0.106E+02 0.501E+03   0.134E+02 -.105E+02 -.502E+03   -.107E+00 -.229E-01 0.584E+00   -.268E-06 0.109E-06 0.985E-06
   -.911E+01 0.179E+02 -.475E+03   0.927E+01 -.182E+02 0.475E+03   -.195E+00 0.270E+00 -.111E+00   -.165E-07 -.584E-06 -.124E-05
   -.195E+02 0.334E+02 -.449E+03   0.194E+02 -.337E+02 0.450E+03   0.167E+00 0.308E+00 -.303E+00   0.656E-06 -.770E-07 -.112E-05
   -.878E+00 0.627E+01 0.501E+03   0.709E+00 -.630E+01 -.501E+03   0.124E+00 -.321E-01 -.547E+00   -.116E-06 -.464E-06 0.103E-05
   -.687E+01 0.647E+01 0.518E+03   0.663E+01 -.644E+01 -.519E+03   0.252E+00 -.261E-02 0.324E+00   -.623E-06 -.961E-06 0.103E-05
   -.215E+01 0.936E+01 -.518E+03   0.224E+01 -.914E+01 0.519E+03   -.126E+00 -.214E+00 -.327E+00   0.111E-05 0.679E-07 -.101E-05
   -.496E+01 0.394E+01 -.501E+03   0.507E+01 -.381E+01 0.500E+03   -.307E-01 -.130E+00 0.549E+00   0.465E-06 -.110E-06 -.100E-05
   -.804E+01 0.166E+01 0.510E+03   0.800E+01 -.164E+01 -.510E+03   0.132E-01 -.476E-02 0.286E+00   0.958E-06 0.131E-06 0.115E-05
   -.455E+01 -.567E+01 0.502E+03   0.465E+01 0.572E+01 -.502E+03   -.471E-01 -.632E-01 -.190E+00   0.584E-06 0.187E-07 0.119E-05
   -.856E+01 -.249E+01 -.510E+03   0.844E+01 0.256E+01 0.510E+03   0.700E-01 -.339E-01 -.103E+00   -.379E-06 -.567E-06 -.138E-05
   -.119E+02 -.202E+02 -.485E+03   0.119E+02 0.205E+02 0.485E+03   0.533E-01 -.302E+00 0.279E+00   0.413E-07 -.109E-06 -.985E-06
   -.131E+02 -.765E+01 0.491E+03   0.132E+02 0.770E+01 -.491E+03   -.133E+00 -.751E-01 0.329E+00   0.176E-06 0.114E-06 0.109E-05
   -.224E+02 -.129E+02 0.415E+03   0.225E+02 0.130E+02 -.414E+03   -.829E-01 -.539E-01 -.866E+00   -.740E-07 -.252E-07 0.651E-06
   -.979E+02 -.567E+02 -.483E+03   0.102E+03 0.592E+02 0.485E+03   -.434E+01 -.250E+01 -.208E+01   0.295E-07 0.103E-07 -.103E-05
   -.374E+02 0.137E+02 0.412E+03   0.375E+02 -.141E+02 -.412E+03   -.104E+00 0.364E+00 -.280E+00   -.187E-06 0.661E-08 0.835E-06
   -.670E+02 0.617E+02 0.265E+03   0.689E+02 -.633E+02 -.266E+03   -.190E+01 0.166E+01 0.794E+00   0.239E-06 -.337E-06 0.823E-06
   -.196E+02 0.887E+02 -.264E+03   0.201E+02 -.912E+02 0.265E+03   -.480E+00 0.248E+01 -.785E+00   0.193E-06 -.338E-06 -.750E-06
   0.670E+01 0.393E+02 -.412E+03   -.642E+01 -.395E+02 0.411E+03   -.265E+00 0.270E+00 0.285E+00   0.138E-06 0.200E-06 -.783E-06
   -.190E+02 0.337E+02 0.450E+03   0.193E+02 -.337E+02 -.450E+03   -.347E+00 0.136E-01 0.312E+00   -.234E-06 -.679E-06 0.118E-05
   -.109E+02 0.167E+02 0.476E+03   0.111E+02 -.170E+02 -.476E+03   -.133E+00 0.300E+00 0.115E+00   0.484E-06 -.346E-06 0.128E-05
   -.251E+01 0.168E+02 -.501E+03   0.236E+01 -.169E+02 0.502E+03   0.724E-01 0.819E-01 -.586E+00   0.803E-07 0.309E-06 -.953E-06
   0.207E+01 0.951E+00 -.508E+03   -.201E+01 -.854E+00 0.509E+03   0.177E-01 -.119E+00 -.841E-01   -.219E-06 -.260E-06 -.128E-05
   -.207E+01 -.953E+00 0.508E+03   0.201E+01 0.857E+00 -.509E+03   -.176E-01 0.120E+00 0.841E-01   0.239E-06 0.244E-06 0.130E-05
   0.252E+01 -.168E+02 0.501E+03   -.237E+01 0.169E+02 -.502E+03   -.727E-01 -.819E-01 0.586E+00   -.382E-07 -.295E-06 0.978E-06
   0.109E+02 -.167E+02 -.476E+03   -.111E+02 0.170E+02 0.476E+03   0.133E+00 -.300E+00 -.115E+00   -.504E-06 0.278E-06 -.124E-05
   0.190E+02 -.337E+02 -.450E+03   -.193E+02 0.337E+02 0.450E+03   0.347E+00 -.134E-01 -.312E+00   0.250E-06 0.620E-06 -.112E-05
   -.670E+01 -.393E+02 0.412E+03   0.642E+01 0.395E+02 -.412E+03   0.265E+00 -.270E+00 -.284E+00   -.948E-07 -.158E-06 0.829E-06
   0.196E+02 -.887E+02 0.264E+03   -.201E+02 0.912E+02 -.265E+03   0.480E+00 -.248E+01 0.785E+00   -.171E-06 0.374E-06 0.846E-06
   0.670E+02 -.617E+02 -.265E+03   -.689E+02 0.633E+02 0.266E+03   0.190E+01 -.166E+01 -.794E+00   -.197E-06 0.338E-06 -.731E-06
   0.374E+02 -.137E+02 -.412E+03   -.375E+02 0.141E+02 0.412E+03   0.104E+00 -.364E+00 0.280E+00   0.243E-06 0.991E-08 -.790E-06
   0.979E+02 0.567E+02 0.483E+03   -.102E+03 -.592E+02 -.485E+03   0.434E+01 0.250E+01 0.208E+01   -.101E-06 -.535E-07 0.108E-05
   0.224E+02 0.129E+02 -.415E+03   -.225E+02 -.130E+02 0.414E+03   0.829E-01 0.537E-01 0.866E+00   0.138E-06 0.621E-07 -.603E-06
   0.131E+02 0.765E+01 -.491E+03   -.132E+02 -.770E+01 0.491E+03   0.133E+00 0.753E-01 -.329E+00   -.144E-06 -.973E-07 -.107E-05
   0.119E+02 0.202E+02 0.485E+03   -.119E+02 -.205E+02 -.485E+03   -.533E-01 0.302E+00 -.279E+00   -.708E-07 0.584E-07 0.103E-05
   0.856E+01 0.249E+01 0.510E+03   -.844E+01 -.256E+01 -.510E+03   -.702E-01 0.340E-01 0.103E+00   0.389E-06 0.552E-06 0.141E-05
   0.455E+01 0.567E+01 -.502E+03   -.464E+01 -.572E+01 0.502E+03   0.473E-01 0.627E-01 0.190E+00   -.561E-06 -.360E-07 -.116E-05
   0.804E+01 -.166E+01 -.510E+03   -.800E+01 0.165E+01 0.510E+03   -.137E-01 0.514E-02 -.286E+00   -.968E-06 -.161E-06 -.113E-05
   0.496E+01 -.394E+01 0.501E+03   -.507E+01 0.381E+01 -.501E+03   0.313E-01 0.130E+00 -.549E+00   -.456E-06 0.126E-06 0.103E-05
   0.216E+01 -.936E+01 0.518E+03   -.225E+01 0.914E+01 -.519E+03   0.126E+00 0.214E+00 0.327E+00   -.114E-05 -.619E-07 0.103E-05
   0.687E+01 -.646E+01 -.518E+03   -.664E+01 0.644E+01 0.519E+03   -.252E+00 0.238E-02 -.324E+00   0.614E-06 0.928E-06 -.101E-05
   0.877E+00 -.627E+01 -.501E+03   -.707E+00 0.629E+01 0.501E+03   -.124E+00 0.322E-01 0.547E+00   0.137E-06 0.464E-06 -.101E-05
   0.195E+02 -.334E+02 0.449E+03   -.194E+02 0.337E+02 -.450E+03   -.167E+00 -.308E+00 0.304E+00   -.703E-06 0.122E-06 0.118E-05
   0.911E+01 -.179E+02 0.475E+03   -.926E+01 0.182E+02 -.475E+03   0.195E+00 -.269E+00 0.111E+00   -.558E-07 0.604E-06 0.128E-05
   0.132E+02 -.106E+02 -.501E+03   -.134E+02 0.105E+02 0.502E+03   0.107E+00 0.229E-01 -.584E+00   0.305E-06 -.787E-07 -.958E-06
   0.180E+01 0.142E+01 -.508E+03   -.168E+01 -.143E+01 0.508E+03   -.923E-01 0.735E-01 -.791E-01   -.354E-06 -.572E-07 -.128E-05
   0.235E+02 0.326E+00 0.484E+03   -.238E+02 -.114E+00 -.484E+03   0.235E+00 -.192E+00 -.281E+00   0.149E-07 -.774E-07 0.103E-05
   0.652E+01 0.628E+01 0.509E+03   -.652E+01 -.615E+01 -.510E+03   -.300E-02 -.794E-01 0.101E+00   0.672E-06 0.643E-07 0.141E-05
   0.708E+01 0.112E+01 -.502E+03   -.718E+01 -.117E+01 0.502E+03   0.753E-01 0.145E-01 0.187E+00   -.330E-06 -.478E-06 -.117E-05
   0.247E+01 0.796E+01 -.510E+03   -.245E+01 -.792E+01 0.510E+03   -.271E-02 -.162E-01 -.286E+00   -.637E-06 -.756E-06 -.113E-05
   0.291E+01 0.169E+01 0.512E+03   -.311E+01 -.180E+01 -.511E+03   0.119E+00 0.721E-01 -.107E+00   0.563E-06 0.327E-06 0.132E-05
   0.284E+01 0.163E+01 0.512E+03   -.278E+01 -.160E+01 -.512E+03   0.517E-02 0.228E-02 0.183E+00   -.269E-06 -.162E-06 0.109E-05
   0.670E+01 0.397E+01 -.509E+03   -.673E+01 -.398E+01 0.509E+03   0.189E-01 0.160E-01 0.653E+00   -.523E-06 -.289E-06 -.112E-05
   0.112E+00 0.153E+00 -.539E+03   -.270E+00 -.248E+00 0.540E+03   0.166E+00 0.911E-01 -.522E+00   0.673E-06 0.396E-06 -.110E-05
 -----------------------------------------------------------------------------------------------
   -.498E-04 0.126E-03 -.460E-03   -.217E-12 0.199E-12 -.796E-12   -.529E-04 -.173E-03 0.473E-03   -.161E-08 -.228E-08 0.109E-05
 
 
 POSITION                                       TOTAL-FORCE (eV/Angst)
 -----------------------------------------------------------------------------------
     14.62025      8.43587     19.21787        -0.009574      0.002714      0.010492
      1.20042      0.69419     19.20003         0.014235     -0.003149      0.001634
      1.37446      0.79395     22.58608        -0.070683     -0.033099     -0.013516
      2.60653      1.50468     22.60068         0.080261      0.036846     -0.009977
     10.97070      2.06896     19.25470        -0.013432     -0.015018     -0.002325
      2.42428      2.81617     19.24126         0.018406      0.034073     -0.005196
      2.60069      2.91879     22.57713        -0.014726     -0.047144     -0.002702
      3.85044      3.62723     22.46352         0.037056      0.015937     -0.003120
     12.18419      4.19003     19.26510        -0.023192     -0.063731     -0.001907
      3.64004      4.93349     19.33228         0.034978      0.068471      0.003712
      3.80095      5.05575     22.42792        -0.025178     -0.014057      0.008422
      5.00014      5.77084     22.26641         0.020221     -0.001073     -0.002951
     13.39167      6.31306     19.30437        -0.044819     -0.056773      0.008741
      4.83880      7.05859     19.28306         0.007458      0.021466      0.005413
      5.01184      7.15800     22.54447        -0.029974      0.013614     -0.003815
      6.23523      7.86604     22.55258         0.078271      0.000807     -0.009631
      7.28236      8.46461     19.25409        -0.028800      0.008924     -0.003304
      3.65005      0.69110     19.24074         0.045994     -0.012130     -0.005804
      3.82757      0.79096     22.57785        -0.057296      0.019831     -0.002590
      5.06629      1.51778     22.46479         0.037568      0.018099     -0.003402
      3.65894      2.11211     19.31371        -0.049397     -0.021326     -0.020603
      4.87735      2.81483     19.59208         0.051865      0.026054      0.000904
      5.05070      2.91363     22.41628        -0.013595     -0.002903      0.004897
      4.84797      4.24008     19.66579        -0.012871     -0.022401     -0.008904
      5.95537      5.04293     20.15907        -0.006263      0.000600     -0.009663
      6.19801      5.18488     21.66564         0.001308      0.004991      0.012457
      7.44660      5.74023     22.16056         0.028092     -0.005385      0.009284
      6.04583      6.37420     19.55927        -0.013134     -0.013470      0.001991
      7.26442      7.05522     19.39826         0.028977      0.003560     -0.006846
      7.45115      7.13239     22.49564        -0.082972      0.009084     -0.002764
      8.67739      7.84786     22.59286         0.073672     -0.018181      0.002017
      9.72576      8.45254     19.26470        -0.073486      0.019046     -0.001978
      6.09133      0.68245     19.33244         0.081924     -0.009318      0.002776
      6.27804      0.75963     22.42987        -0.028005     -0.004310      0.006853
      7.49665      1.44063     22.26880         0.012392      0.013679     -0.002042
      6.09587      2.07461     19.66749        -0.028013      0.005595     -0.009084
      7.34445      2.62996     20.16241        -0.001411     -0.004927     -0.012293
      7.58711      2.77190     21.66897         0.006315     -0.000583      0.009905
      8.69451      3.57475     22.16225         0.012761      0.022619      0.009052
      8.49176      4.90120     19.41182         0.013255      0.003517     -0.004894
      8.66512      5.00001     22.23599        -0.051744     -0.026390     -0.000761
      9.88353      5.70272     22.51444         0.049110      0.021931      0.020625
      8.47618      6.29706     19.36334        -0.037922     -0.018180      0.003389
      9.71491      7.02387     19.25031         0.056540     -0.019781      0.002533
      9.89241      7.12375     22.58744        -0.045340      0.011184      0.005719
     11.12081      7.83579     22.60353         0.027763     -0.007808      0.003079
     12.16792      8.43437     19.30491        -0.076757     -0.000651      0.009647
      8.53064      0.65683     19.28360         0.028917     -0.013524      0.003928
      8.70367      0.75625     22.54501        -0.007522     -0.022263     -0.005300
      9.92873      1.46152     22.55268         0.045989      0.056792     -0.008654
      8.54233      2.04400     19.56165        -0.019913      0.000645      0.002890
      9.74152      2.75908     19.40022         0.024673      0.015074     -0.008390
      9.90243      2.88134     22.49580        -0.035318     -0.068529     -0.003664
     11.13621      3.58455     22.59203         0.023910      0.063113      0.001919
      9.69202      4.18762     19.36462        -0.036424     -0.017060      0.003049
     10.94178      4.89603     19.25104         0.013901      0.048212      0.002604
     11.11818      4.99866     22.58693        -0.018245     -0.033753      0.005123
     12.34971      5.70562     22.60248         0.013647      0.014526      0.002124
     10.93593      6.31016     19.22748        -0.078691     -0.037501      0.009889
     12.16803      7.02088     19.24203         0.068946      0.033084      0.013444
     12.34205      7.12065     22.62817        -0.013496      0.002776     -0.001815
     13.56084      7.82428     22.66864         0.009788     -0.002448     -0.010621
 -----------------------------------------------------------------------------------
    total drift:                               -0.000103     -0.000047      0.000014


--------------------------------------------------------------------------------------------------------



  FREE ENERGIE OF THE ION-ELECTRON SYSTEM (eV)
  ---------------------------------------------------
  free  energy   TOTEN  =      -565.05047903 eV

  energy  without entropy=     -565.05047903  energy(sigma->0) =     -565.05047903
 


--------------------------------------------------------------------------------------------------------


    POTLOK:  cpu time    1.6953: real time    1.7075


--------------------------------------------------------------------------------------------------------


     LOOP+:  cpu time15112.2367: real time15149.6197
    4ORBIT:  cpu time    0.0000: real time    0.0000
 BZINTS: Fermi energy: -3.409372;248.000000 electrons
         Band energy:***********;  BLOECHL correction:  0.000000

 total amount of memory used by VASP MPI-rank0   609826. kBytes
=======================================================================

   base      :      30000. kBytes
   nonl-proj :      53067. kBytes
   fftplans  :      41090. kBytes
   grid      :      97443. kBytes
   one-center:         49. kBytes
   wavefun   :     388177. kBytes
 
  
  
 General timing and accounting informations for this job:
 ========================================================
  
                  Total CPU time used (sec):    15208.414
                            User time (sec):    14678.740
                          System time (sec):      529.674
                         Elapsed time (sec):    15246.614
  
                   Maximum memory used (kb):      717364.
                   Average memory used (kb):           0.
  
                          Minor page faults:     15585384
                          Major page faults:          154
                 Voluntary context switches:         4891
