<?xml version="1.0" encoding="ISO-8859-1"?>
<modeling>
 <generator>
  <i name="program" type="string">vasp </i>
  <i name="version" type="string">5.4.4.18Apr17-6-g9f103f2a35  </i>
  <i name="subversion" type="string">(build Jan 12 2023 11:40:15) complex            parallel </i>
  <i name="platform" type="string">LinuxIFC </i>
  <i name="date" type="string">2024 01 13 </i>
  <i name="time" type="string">00:40:22 </i>
 </generator>
 <incar>
  <i type="int" name="ISTART">     0</i>
  <i type="string" name="PREC">accurate   (precision level)</i>
  <i type="string" name="ALGO"> Normal</i>
  <i type="int" name="ISPIN">     2</i>
  <i type="int" name="ICHARG">     2</i>
  <i type="int" name="NELM">   150</i>
  <i type="int" name="IBRION">    -1</i>
  <i name="EDIFF">      0.00000010</i>
  <i type="int" name="NSW">     1</i>
  <i type="int" name="ISYM">     0</i>
  <i name="ENCUT">    850.00000000</i>
  <i type="logical" name="LREAL"> F  </i>
  <i type="int" name="ISMEAR">    -5</i>
  <i name="SIGMA">      0.02000000</i>
  <i name="KSPACING">      0.15000000</i>
  <i type="logical" name="KGAMMA"> T  </i>
  <i type="logical" name="LWAVE"> F  </i>
  <i type="logical" name="LCHARG"> F  </i>
  <v type="int" name="KPOINT_BSE">    -1     0     0     0</v>
  <i type="int" name="NELM">   150</i>
 </incar>
 <structure name="primitive_cell" >
  <crystal>
   <varray name="basis" >
    <v>       9.77793745      -0.04025818       0.02897554 </v>
    <v>       4.86069124       8.48556873       0.02941921 </v>
    <v>       0.14859692       0.08830162      49.73165690 </v>
   </varray>
   <i name="volume">   4135.98516310 </i>
   <varray name="rec_basis" >
    <v>       0.10203102      -0.05844457      -0.00020109 </v>
    <v>       0.00048469       0.11757023      -0.00021020 </v>
    <v>      -0.00005973      -0.00003550       0.02010816 </v>
   </varray>
  </crystal>
  <varray name="positions" >
   <v>      -0.00517597      -0.00514613       0.38526325 </v>
   <v>       0.07804682       0.07816236       0.38598079 </v>
   <v>       0.07729393      -0.17182748       0.38720720 </v>
   <v>      -0.17187584       0.07730515       0.38722484 </v>
   <v>       0.24444477      -0.00533177       0.38642874 </v>
   <v>      -0.00544015       0.24451806       0.38644784 </v>
   <v>       0.24039131      -0.25176501       0.39271341 </v>
   <v>      -0.25181197       0.24034172       0.39276597 </v>
   <v>      -0.25531989      -0.00652945       0.38715996 </v>
   <v>      -0.00648021      -0.25533890       0.38715126 </v>
   <v>       0.32495629      -0.17107302       0.38937890 </v>
   <v>      -0.17121709       0.32502988       0.38942288 </v>
   <v>      -0.17268575      -0.17270017       0.38594564 </v>
   <v>       0.08848264      -0.16074141       0.45277420 </v>
   <v>      -0.16068826       0.08839210       0.45279189 </v>
   <v>      -0.07821810      -0.07829023       0.45473682 </v>
   <v>       0.17192441      -0.07690681       0.45283917 </v>
   <v>      -0.07691465       0.17190253       0.45284789 </v>
   <v>       0.32815800       0.07897708       0.38665332 </v>
   <v>       0.07889253       0.32822877       0.38666152 </v>
   <v>      -0.40839926       0.30852651       0.40489675 </v>
   <v>       0.30884664      -0.40845296       0.40482701 </v>
   <v>      -0.42226816       0.07912459       0.38835160 </v>
   <v>       0.07917357      -0.42226740       0.38834391 </v>
   <v>       0.08929337       0.08926390       0.45405424 </v>
   <v>       0.16841673      -0.32377738       0.44723305 </v>
   <v>      -0.32378445       0.16832814       0.44728564 </v>
   <v>       0.49291043      -0.25961526       0.38863125 </v>
   <v>      -0.25975060       0.49296619       0.38865925 </v>
   <v>       0.24599994       0.24603481       0.38806952 </v>
   <v>      -0.25685723      -0.25685427       0.38575190 </v>
   <v>       0.49676315       0.24273321       0.39503921 </v>
   <v>       0.24287889       0.49672315       0.39500280 </v>
   <v>      -0.16144206      -0.16159807       0.45402084 </v>
   <v>       0.32500446      -0.39196206       0.43510178 </v>
   <v>      -0.39223933       0.32501577       0.43517146 </v>
   <v>       0.33887491      -0.16256067       0.45164764 </v>
   <v>      -0.16256726       0.33883118       0.45165540 </v>
   <v>       0.17346125       0.17341878       0.45424891 </v>
   <v>       0.41984261      -0.32616904       0.44495936 </v>
   <v>      -0.32627175       0.41984016       0.44499574 </v>
   <v>       0.08782385      -0.40846697       0.45057756 </v>
   <v>      -0.40835176       0.08763797       0.45062145 </v>
   <v>       0.49445059      -0.00556893       0.38649662 </v>
   <v>      -0.00559380       0.49447934       0.38650914 </v>
   <v>      -0.07795447      -0.32795377       0.45355394 </v>
   <v>      -0.32783774      -0.07810526       0.45357293 </v>
   <v>      -0.42315646      -0.17353939       0.38625857 </v>
   <v>      -0.17361659      -0.42311545       0.38627552 </v>
   <v>      -0.42392893      -0.42372931       0.38965480 </v>
   <v>      -0.07780176       0.42208494       0.45349160 </v>
   <v>       0.42215525      -0.07786854       0.45350391 </v>
   <v>       0.09022351       0.33967811       0.45372557 </v>
   <v>       0.33976303       0.09010300       0.45374233 </v>
   <v>       0.32918961       0.32918644       0.39356932 </v>
   <v>       0.42369547       0.17617905       0.45136911 </v>
   <v>       0.17635471       0.42359887       0.45134126 </v>
   <v>      -0.41155353      -0.16241237       0.45334796 </v>
   <v>      -0.16228694      -0.41166547       0.45333991 </v>
   <v>      -0.41258375      -0.41262213       0.44642973 </v>
   <v>      -0.32939393      -0.32947194       0.45193110 </v>
   <v>       0.34053457       0.34029216       0.45034490 </v>
  </varray>
 </structure>
 <varray name="primitive_index" >
  <v type="int" >        1 </v>
  <v type="int" >        2 </v>
  <v type="int" >       14 </v>
  <v type="int" >       48 </v>
  <v type="int" >       17 </v>
  <v type="int" >        5 </v>
  <v type="int" >       28 </v>
  <v type="int" >       51 </v>
  <v type="int" >       47 </v>
  <v type="int" >       13 </v>
  <v type="int" >       29 </v>
  <v type="int" >       52 </v>
  <v type="int" >       60 </v>
  <v type="int" >       15 </v>
  <v type="int" >       49 </v>
  <v type="int" >       62 </v>
  <v type="int" >       16 </v>
  <v type="int" >       50 </v>
  <v type="int" >       18 </v>
  <v type="int" >        6 </v>
  <v type="int" >       37 </v>
  <v type="int" >       25 </v>
  <v type="int" >       33 </v>
  <v type="int" >       10 </v>
  <v type="int" >        3 </v>
  <v type="int" >       12 </v>
  <v type="int" >       35 </v>
  <v type="int" >       43 </v>
  <v type="int" >       55 </v>
  <v type="int" >       21 </v>
  <v type="int" >       59 </v>
  <v type="int" >       36 </v>
  <v type="int" >       24 </v>
  <v type="int" >       61 </v>
  <v type="int" >       26 </v>
  <v type="int" >       38 </v>
  <v type="int" >       30 </v>
  <v type="int" >       53 </v>
  <v type="int" >        4 </v>
  <v type="int" >       27 </v>
  <v type="int" >       39 </v>
  <v type="int" >       11 </v>
  <v type="int" >       34 </v>
  <v type="int" >       32 </v>
  <v type="int" >        9 </v>
  <v type="int" >       58 </v>
  <v type="int" >       46 </v>
  <v type="int" >       44 </v>
  <v type="int" >       56 </v>
  <v type="int" >       40 </v>
  <v type="int" >       54 </v>
  <v type="int" >       31 </v>
  <v type="int" >        7 </v>
  <v type="int" >       19 </v>
  <v type="int" >       22 </v>
  <v type="int" >       20 </v>
  <v type="int" >        8 </v>
  <v type="int" >       45 </v>
  <v type="int" >       57 </v>
  <v type="int" >       41 </v>
  <v type="int" >       42 </v>
  <v type="int" >       23 </v>
 </varray>
 <kpoints>
  <generation param="Gamma">
   <v type="int" name="divisions">       5        5        1 </v>
   <v name="usershift">      0.00000000       0.00000000       0.00000000 </v>
   <v name="genvec1">      0.20000000       0.00000000      -0.00000000 </v>
   <v name="genvec2">      0.00000000       0.20000000       0.00000000 </v>
   <v name="genvec3">     -0.00000000      -0.00000000       1.00000000 </v>
   <v name="shift">      0.00000000       0.00000000       0.00000000 </v>
  </generation>
  <varray name="kpointlist" >
   <v>       0.00000000       0.00000000       0.00000000 </v>
   <v>       0.20000000       0.00000000       0.00000000 </v>
   <v>       0.40000000       0.00000000       0.00000000 </v>
   <v>      -0.00000000       0.20000000       0.00000000 </v>
   <v>       0.20000000       0.20000000       0.00000000 </v>
   <v>       0.40000000       0.20000000       0.00000000 </v>
   <v>      -0.40000000       0.20000000      -0.00000000 </v>
   <v>      -0.20000000       0.20000000      -0.00000000 </v>
   <v>      -0.00000000       0.40000000       0.00000000 </v>
   <v>       0.20000000       0.40000000       0.00000000 </v>
   <v>       0.40000000       0.40000000       0.00000000 </v>
   <v>      -0.40000000       0.40000000      -0.00000000 </v>
   <v>      -0.20000000       0.40000000      -0.00000000 </v>
  </varray>
  <varray name="weights" >
   <v>       0.04000000 </v>
   <v>       0.08000000 </v>
   <v>       0.08000000 </v>
   <v>       0.08000000 </v>
   <v>       0.08000000 </v>
   <v>       0.08000000 </v>
   <v>       0.08000000 </v>
   <v>       0.08000000 </v>
   <v>       0.08000000 </v>
   <v>       0.08000000 </v>
   <v>       0.08000000 </v>
   <v>       0.08000000 </v>
   <v>       0.08000000 </v>
  </varray>
  <varray name="tetrahedronlist"  type="int" >
   <v type="int" >        2        1        4        5        5 </v>
   <v type="int" >        2        1        2        5        5 </v>
   <v type="int" >        2        1        2        2        5 </v>
   <v type="int" >        2        1        4        4        5 </v>
   <v type="int" >        2        1        1        4        5 </v>
   <v type="int" >        2        1        1        2        5 </v>
   <v type="int" >        2        2        5        6        6 </v>
   <v type="int" >        2        2        3        6        6 </v>
   <v type="int" >        2        2        3        3        6 </v>
   <v type="int" >        2        2        5        5        6 </v>
   <v type="int" >        2        2        2        5        6 </v>
   <v type="int" >        2        2        2        3        6 </v>
   <v type="int" >        2        3        6        7        7 </v>
   <v type="int" >        2        3        3        7        7 </v>
   <v type="int" >        4        3        3        3        7 </v>
   <v type="int" >        2        3        6        6        7 </v>
   <v type="int" >        2        3        3        6        7 </v>
   <v type="int" >        2        3        7        8        8 </v>
   <v type="int" >        2        2        3        8        8 </v>
   <v type="int" >        2        2        2        3        8 </v>
   <v type="int" >        2        3        7        7        8 </v>
   <v type="int" >        2        3        3        7        8 </v>
   <v type="int" >        2        2        3        3        8 </v>
   <v type="int" >        2        2        4        4        8 </v>
   <v type="int" >        2        1        2        4        4 </v>
   <v type="int" >        2        1        1        2        4 </v>
   <v type="int" >        2        2        4        8        8 </v>
   <v type="int" >        2        2        2        4        8 </v>
   <v type="int" >        2        1        2        2        4 </v>
   <v type="int" >        2        4        9       10       10 </v>
   <v type="int" >        2        4        5       10       10 </v>
   <v type="int" >        2        4        5        5       10 </v>
   <v type="int" >        2        4        9        9       10 </v>
   <v type="int" >        2        4        4        9       10 </v>
   <v type="int" >        2        4        4        5       10 </v>
   <v type="int" >        2        5       10       11       11 </v>
   <v type="int" >        2        5        6       11       11 </v>
   <v type="int" >        2        5        6        6       11 </v>
   <v type="int" >        2        5       10       10       11 </v>
   <v type="int" >        2        5        5       10       11 </v>
   <v type="int" >        2        5        5        6       11 </v>
   <v type="int" >        2        6       11       12       12 </v>
   <v type="int" >        2        6        7       12       12 </v>
   <v type="int" >        2        6        7        7       12 </v>
   <v type="int" >        2        6       11       11       12 </v>
   <v type="int" >        2        6        6       11       12 </v>
   <v type="int" >        2        6        6        7       12 </v>
   <v type="int" >        2        7       12       13       13 </v>
   <v type="int" >        2        7        8       13       13 </v>
   <v type="int" >        2        7        8        8       13 </v>
   <v type="int" >        2        7       12       12       13 </v>
   <v type="int" >        2        7        7       12       13 </v>
   <v type="int" >        2        7        7        8       13 </v>
   <v type="int" >        2        8        9        9       13 </v>
   <v type="int" >        2        4        8        9        9 </v>
   <v type="int" >        2        4        4        8        9 </v>
   <v type="int" >        2        8        9       13       13 </v>
   <v type="int" >        2        8        8        9       13 </v>
   <v type="int" >        2        4        8        8        9 </v>
   <v type="int" >        2        9        9       13       13 </v>
   <v type="int" >        2        9       10       13       13 </v>
   <v type="int" >        2        9       10       10       13 </v>
   <v type="int" >        4        9        9        9       13 </v>
   <v type="int" >        2        9        9       10       13 </v>
   <v type="int" >        2       10       12       12       13 </v>
   <v type="int" >        2       10       11       12       12 </v>
   <v type="int" >        2       10       11       11       12 </v>
   <v type="int" >        2       10       12       13       13 </v>
   <v type="int" >        2       10       10       12       13 </v>
   <v type="int" >        2       10       10       11       12 </v>
   <v type="int" >        4       11       11       11       12 </v>
   <v type="int" >        2       11       11       12       12 </v>
  </varray>
  <i name="volumeweight">      0.00666667 </i>
 </kpoints>
 <parameters>
  <separator name="general" >
   <i type="string" name="SYSTEM">unknown system</i>
   <i type="logical" name="LCOMPAT"> F  </i>
  </separator>
  <separator name="electronic" >
   <i type="string" name="PREC">accura</i>
   <i name="ENMAX">    850.00000000</i>
   <i name="ENAUG">    644.87300000</i>
   <i name="EDIFF">      0.00000010</i>
   <i type="int" name="IALGO">    38</i>
   <i type="int" name="IWAVPR">    10</i>
   <i type="int" name="NBANDS">   192</i>
   <i name="NELECT">    248.00000000</i>
   <i type="int" name="TURBO">     0</i>
   <i type="int" name="IRESTART">     0</i>
   <i type="int" name="NREBOOT">     0</i>
   <i type="int" name="NMIN">     0</i>
   <i name="EREF">      0.00000000</i>
   <separator name="electronic smearing" >
    <i type="int" name="ISMEAR">    -5</i>
    <i name="SIGMA">      0.02000000</i>
    <i name="KSPACING">      0.15000000</i>
    <i type="logical" name="KGAMMA"> T  </i>
   </separator>
   <separator name="electronic projectors" >
    <i type="logical" name="LREAL"> F  </i>
    <v name="ROPT">      0.00000000</v>
    <i type="int" name="LMAXPAW">  -100</i>
    <i type="int" name="LMAXMIX">     2</i>
    <i type="logical" name="NLSPLINE"> F  </i>
   </separator>
   <separator name="electronic startup" >
    <i type="int" name="ISTART">     0</i>
    <i type="int" name="ICHARG">     2</i>
    <i type="int" name="INIWAV">     1</i>
   </separator>
   <separator name="electronic spin" >
    <i type="int" name="ISPIN">     2</i>
    <i type="logical" name="LNONCOLLINEAR"> F  </i>
    <v name="MAGMOM">      1.00000000      1.00000000      1.00000000      1.00000000      1.00000000      1.00000000      1.00000000      1.00000000      1.00000000      1.00000000      1.00000000      1.00000000      1.00000000      1.00000000      1.00000000      1.00000000      1.00000000      1.00000000      1.00000000      1.00000000
      1.00000000      1.00000000      1.00000000      1.00000000      1.00000000      1.00000000      1.00000000      1.00000000      1.00000000      1.00000000      1.00000000      1.00000000      1.00000000      1.00000000      1.00000000      1.00000000      1.00000000      1.00000000      1.00000000      1.00000000
      1.00000000      1.00000000      1.00000000      1.00000000      1.00000000      1.00000000      1.00000000      1.00000000      1.00000000      1.00000000      1.00000000      1.00000000      1.00000000      1.00000000      1.00000000      1.00000000      1.00000000      1.00000000      1.00000000      1.00000000
      1.00000000      1.00000000</v>
    <i name="NUPDOWN">     -1.00000000</i>
    <i type="logical" name="LSORBIT"> F  </i>
    <v name="SAXIS">      0.00000000      0.00000000      1.00000000</v>
    <i type="logical" name="LSPIRAL"> F  </i>
    <v name="QSPIRAL">      0.00000000      0.00000000      0.00000000</v>
    <i type="logical" name="LZEROZ"> F  </i>
   </separator>
   <separator name="electronic exchange-correlation" >
    <i type="logical" name="LASPH"> F  </i>
    <i type="logical" name="LMETAGGA"> F  </i>
   </separator>
   <separator name="electronic convergence" >
    <i type="int" name="NELM">   150</i>
    <i type="int" name="NELMDL">    -5</i>
    <i type="int" name="NELMIN">     2</i>
    <i name="ENINI">    850.00000000</i>
    <separator name="electronic convergence detail" >
     <i type="logical" name="LDIAG"> T  </i>
     <i type="logical" name="LSUBROT"> F  </i>
     <i name="WEIMIN">      0.00000000</i>
     <i name="EBREAK">      0.00000000</i>
     <i name="DEPER">      0.30000000</i>
     <i type="int" name="NRMM">     4</i>
     <i name="TIME">      0.40000000</i>
    </separator>
   </separator>
   <separator name="electronic mixer" >
    <i name="AMIX">      0.40000000</i>
    <i name="BMIX">      1.00000000</i>
    <i name="AMIN">      0.10000000</i>
    <i name="AMIX_MAG">      1.60000000</i>
    <i name="BMIX_MAG">      1.00000000</i>
    <separator name="electronic mixer details" >
     <i type="int" name="IMIX">     4</i>
     <i type="logical" name="MIXFIRST"> F  </i>
     <i type="int" name="MAXMIX">   -45</i>
     <i name="WC">    100.00000000</i>
     <i type="int" name="INIMIX">     1</i>
     <i type="int" name="MIXPRE">     1</i>
     <i type="int" name="MREMOVE">     5</i>
    </separator>
   </separator>
   <separator name="electronic dipolcorrection" >
    <i type="logical" name="LDIPOL"> F  </i>
    <i type="logical" name="LMONO"> F  </i>
    <i type="int" name="IDIPOL">     0</i>
    <i name="EPSILON">      1.00000000</i>
    <v name="DIPOL">   -100.00000000   -100.00000000   -100.00000000</v>
    <i name="EFIELD">      0.00000000</i>
   </separator>
  </separator>
  <separator name="grids" >
   <i type="int" name="NGX">    96</i>
   <i type="int" name="NGY">    96</i>
   <i type="int" name="NGZ">   480</i>
   <i type="int" name="NGXF">   192</i>
   <i type="int" name="NGYF">   192</i>
   <i type="int" name="NGZF">   960</i>
   <i type="logical" name="ADDGRID"> F  </i>
  </separator>
  <separator name="ionic" >
   <i type="int" name="NSW">     1</i>
   <i type="int" name="IBRION">    -1</i>
   <i type="int" name="MDALGO">     0</i>
   <i type="int" name="ISIF">     2</i>
   <i name="PSTRESS">      0.00000000</i>
   <i name="EDIFFG">      0.00000100</i>
   <i type="int" name="NFREE">     0</i>
   <i name="POTIM">      0.50000000</i>
   <i name="SMASS">     -3.00000000</i>
   <i name="SCALEE">      1.00000000</i>
  </separator>
  <separator name="ionic md" >
   <i name="TEBEG">      0.00010000</i>
   <i name="TEEND">      0.00010000</i>
   <i type="int" name="NBLOCK">     1</i>
   <i type="int" name="KBLOCK">     1</i>
   <i type="int" name="NPACO">   256</i>
   <i name="APACO">     16.00000000</i>
  </separator>
  <separator name="symmetry" >
   <i type="int" name="ISYM">     0</i>
   <i name="SYMPREC">      0.00001000</i>
  </separator>
  <separator name="dos" >
   <i type="int" name="LORBIT">     0</i>
   <v name="RWIGS">     -1.00000000</v>
   <i type="int" name="NEDOS">   301</i>
   <i name="EMIN">     10.00000000</i>
   <i name="EMAX">    -10.00000000</i>
   <i name="EFERMI">      0.00000000</i>
  </separator>
  <separator name="writing" >
   <i type="int" name="NWRITE">     2</i>
   <i type="logical" name="LWAVE"> F  </i>
   <i type="logical" name="LDOWNSAMPLE"> F  </i>
   <i type="logical" name="LCHARG"> F  </i>
   <i type="logical" name="LPARD"> F  </i>
   <i type="logical" name="LVTOT"> F  </i>
   <i type="logical" name="LVHAR"> F  </i>
   <i type="logical" name="LELF"> F  </i>
   <i type="logical" name="LOPTICS"> F  </i>
   <v name="STM">      0.00000000      0.00000000      0.00000000      0.00000000      0.00000000      0.00000000      0.00000000</v>
  </separator>
  <separator name="performance" >
   <i type="int" name="NPAR">     6</i>
   <i type="int" name="NSIM">     4</i>
   <i type="int" name="NBLK">    -1</i>
   <i type="logical" name="LPLANE"> T  </i>
   <i type="logical" name="LSCALAPACK"> F  </i>
   <i type="logical" name="LSCAAWARE"> F  </i>
   <i type="logical" name="LSCALU"> F  </i>
   <i type="logical" name="LASYNC"> F  </i>
   <i type="logical" name="LORBITALREAL"> F  </i>
  </separator>
  <separator name="miscellaneous" >
   <i type="int" name="IDIOT">     3</i>
   <i type="int" name="ISPECIAL">     0</i>
   <i type="logical" name="LMUSIC"> F  </i>
   <v name="POMASS">     12.01100000</v>
   <v name="DARWINR">      0.00000000</v>
   <v name="DARWINV">      1.00000000</v>
   <i type="logical" name="LCORR"> T  </i>
  </separator>
  <i type="logical" name="GGA_COMPAT"> T  </i>
  <i type="logical" name="LBERRY"> F  </i>
  <i type="int" name="ICORELEVEL">     0</i>
  <i type="logical" name="LDAU"> F  </i>
  <i type="int" name="I_CONSTRAINED_M">     0</i>
  <separator name="electronic exchange-correlation" >
   <i type="string" name="GGA">--</i>
   <i type="int" name="VOSKOWN">     0</i>
   <i type="logical" name="LHFCALC"> F  </i>
   <i type="string" name="PRECFOCK"></i>
   <i type="logical" name="LSYMGRAD"> F  </i>
   <i type="logical" name="LHFONE"> F  </i>
   <i type="logical" name="LRHFCALC"> F  </i>
   <i type="logical" name="LTHOMAS"> F  </i>
   <i type="logical" name="LMODELHF"> F  </i>
   <i name="ENCUT4O">     -1.00000000</i>
   <i type="int" name="EXXOEP">     0</i>
   <i type="int" name="FOURORBIT">     0</i>
   <i name="AEXX">      0.00000000</i>
   <i name="HFALPHA">      0.00000000</i>
   <i name="MCALPHA">      0.00000000</i>
   <i name="ALDAX">      1.00000000</i>
   <i name="AGGAX">      1.00000000</i>
   <i name="ALDAC">      1.00000000</i>
   <i name="AGGAC">      1.00000000</i>
   <i type="int" name="NKREDX">     1</i>
   <i type="int" name="NKREDY">     1</i>
   <i type="int" name="NKREDZ">     1</i>
   <i type="logical" name="SHIFTRED"> F  </i>
   <i type="logical" name="ODDONLY"> F  </i>
   <i type="logical" name="EVENONLY"> F  </i>
   <i type="int" name="LMAXFOCK">     0</i>
   <i type="int" name="NMAXFOCKAE">     0</i>
   <i type="logical" name="LFOCKAEDFT"> F  </i>
   <i name="HFSCREEN">      0.00000000</i>
   <i name="HFSCREENC">      0.00000000</i>
   <i type="int" name="NBANDSGWLOW">     0</i>
  </separator>
  <separator name="vdW DFT" >
   <i type="logical" name="LUSE_VDW"> F  </i>
   <i name="Zab_VDW">     -0.84910000</i>
   <i name="PARAM1">      0.12340000</i>
   <i name="PARAM2">      1.00000000</i>
   <i name="PARAM3">      0.00000000</i>
  </separator>
  <separator name="model GW" >
   <i type="int" name="MODEL_GW">     0</i>
   <i name="MODEL_EPS0">     40.02566287</i>
   <i name="MODEL_ALPHA">      1.00000000</i>
  </separator>
  <separator name="linear response parameters" >
   <i type="logical" name="LEPSILON"> F  </i>
   <i type="logical" name="LRPA"> F  </i>
   <i type="logical" name="LNABLA"> F  </i>
   <i type="logical" name="LVEL"> F  </i>
   <i type="int" name="KINTER">     0</i>
   <i name="CSHIFT">      0.10000000</i>
   <i name="OMEGAMAX">     -1.00000000</i>
   <i name="DEG_THRESHOLD">      0.00200000</i>
   <i name="RTIME">     -0.10000000</i>
   <i name="WPLASMAI">      0.00000000</i>
   <v name="DFIELD">      0.00000000      0.00000000      0.00000000</v>
   <v name="WPLASMA">      0.00000000      0.00000000      0.00000000      0.00000000      0.00000000      0.00000000      0.00000000      0.00000000      0.00000000</v>
  </separator>
  <separator name="orbital magnetization" >
   <i type="logical" name="NUCIND"> F  </i>
   <v name="MAGPOS">      0.00000000      0.00000000      0.00000000</v>
   <i type="logical" name="LNICSALL"> T  </i>
   <i type="logical" name="ORBITALMAG"> F  </i>
   <i type="logical" name="LMAGBLOCH"> F  </i>
   <i type="logical" name="LCHIMAG"> F  </i>
   <i type="logical" name="LGAUGE"> T  </i>
   <i type="int" name="MAGATOM">     0</i>
   <v name="MAGDIPOL">      0.00000000      0.00000000      0.00000000</v>
   <v name="AVECCONST">      0.00000000      0.00000000      0.00000000</v>
  </separator>
  <separator name="response functions" >
   <i type="logical" name="LADDER"> F  </i>
   <i type="logical" name="LRPAFORCE"> F  </i>
   <i type="logical" name="LFXC"> F  </i>
   <i type="logical" name="LHARTREE"> T  </i>
   <i type="int" name="IBSE">     0</i>
   <v type="int" name="KPOINT">    -1     0     0     0</v>
   <i type="logical" name="LTCTE"> F  </i>
   <i type="logical" name="LTETE"> F  </i>
   <i type="logical" name="LTRIPLET"> F  </i>
   <i type="logical" name="LFXCEPS"> F  </i>
   <i type="logical" name="LFXHEG"> F  </i>
   <i type="int" name="NATURALO">     2</i>
   <i type="logical" name="L2ORDER"> F  </i>
   <i type="logical" name="LMP2LT"> F  </i>
   <i type="logical" name="LUSEW"> F  </i>
   <i name="ENCUTGW">     -2.00000000</i>
   <i name="ENCUTGWSOFT">     -2.00000000</i>
   <i name="ENCUTLF">     -1.00000000</i>
   <i type="int" name="LMAXMP2">    -1</i>
   <i name="SCISSOR">      0.00000000</i>
   <i type="int" name="NOMEGA">     0</i>
   <i type="int" name="NOMEGAR">     0</i>
   <i type="int" name="NBANDSGW">    -1</i>
   <i type="int" name="NBANDSO">    -1</i>
   <i type="int" name="NBANDSV">    -1</i>
   <i type="int" name="NELM">   150</i>
   <i type="int" name="NELMHF">     1</i>
   <i type="int" name="DIM">     3</i>
   <i type="int" name="ANTIRES">     0</i>
   <i name="OMEGAMAX">    -30.00000000</i>
   <i name="OMEGAMIN">    -30.00000000</i>
   <i name="OMEGATL">   -200.00000000</i>
   <i type="int" name="OMEGAGRID">   140</i>
   <i name="CSHIFT">     -0.10000000</i>
   <i type="logical" name="SELFENERGY"> F  </i>
   <i type="logical" name="LSPECTRAL"> F  </i>
   <i type="logical" name="LSPECTRALGW"> F  </i>
   <i type="logical" name="LSINGLES"> F  </i>
   <i type="logical" name="LFERMIGW"> F  </i>
   <i type="logical" name="ODDONLYGW"> F  </i>
   <i type="logical" name="EVENONLYGW"> F  </i>
   <i type="int" name="NKREDLFX">     1</i>
   <i type="int" name="NKREDLFY">     1</i>
   <i type="int" name="NKREDLFZ">     1</i>
   <i type="int" name="MAXMEM">  2800</i>
   <i type="int" name="TELESCOPE">     0</i>
   <i type="int" name="TAUPAR">     1</i>
   <i type="int" name="OMEGAPAR">    -1</i>
   <i name="LAMBDA">      1.00000000</i>
  </separator>
  <separator name="External order field" >
   <i name="OFIELD_KAPPA">      0.00000000</i>
   <v name="OFIELD_K">      0.00000000      0.00000000      0.00000000</v>
   <i name="OFIELD_Q6_NEAR">      0.00000000</i>
   <i name="OFIELD_Q6_FAR">      0.00000000</i>
   <i name="OFIELD_A">      0.00000000</i>
  </separator>
 </parameters>
 <atominfo>
  <atoms>      62 </atoms>
  <types>       1 </types>
  <array name="atoms" >
   <dimension dim="1">ion</dimension>
   <field type="string">element</field>
   <field type="int">atomtype</field>
   <set>
    <rc><c>C </c><c>   1</c></rc>
    <rc><c>C </c><c>   1</c></rc>
    <rc><c>C </c><c>   1</c></rc>
    <rc><c>C </c><c>   1</c></rc>
    <rc><c>C </c><c>   1</c></rc>
    <rc><c>C </c><c>   1</c></rc>
    <rc><c>C </c><c>   1</c></rc>
    <rc><c>C </c><c>   1</c></rc>
    <rc><c>C </c><c>   1</c></rc>
    <rc><c>C </c><c>   1</c></rc>
    <rc><c>C </c><c>   1</c></rc>
    <rc><c>C </c><c>   1</c></rc>
    <rc><c>C </c><c>   1</c></rc>
    <rc><c>C </c><c>   1</c></rc>
    <rc><c>C </c><c>   1</c></rc>
    <rc><c>C </c><c>   1</c></rc>
    <rc><c>C </c><c>   1</c></rc>
    <rc><c>C </c><c>   1</c></rc>
    <rc><c>C </c><c>   1</c></rc>
    <rc><c>C </c><c>   1</c></rc>
    <rc><c>C </c><c>   1</c></rc>
    <rc><c>C </c><c>   1</c></rc>
    <rc><c>C </c><c>   1</c></rc>
    <rc><c>C </c><c>   1</c></rc>
    <rc><c>C </c><c>   1</c></rc>
    <rc><c>C </c><c>   1</c></rc>
    <rc><c>C </c><c>   1</c></rc>
    <rc><c>C </c><c>   1</c></rc>
    <rc><c>C </c><c>   1</c></rc>
    <rc><c>C </c><c>   1</c></rc>
    <rc><c>C </c><c>   1</c></rc>
    <rc><c>C </c><c>   1</c></rc>
    <rc><c>C </c><c>   1</c></rc>
    <rc><c>C </c><c>   1</c></rc>
    <rc><c>C </c><c>   1</c></rc>
    <rc><c>C </c><c>   1</c></rc>
    <rc><c>C </c><c>   1</c></rc>
    <rc><c>C </c><c>   1</c></rc>
    <rc><c>C </c><c>   1</c></rc>
    <rc><c>C </c><c>   1</c></rc>
    <rc><c>C </c><c>   1</c></rc>
    <rc><c>C </c><c>   1</c></rc>
    <rc><c>C </c><c>   1</c></rc>
    <rc><c>C </c><c>   1</c></rc>
    <rc><c>C </c><c>   1</c></rc>
    <rc><c>C </c><c>   1</c></rc>
    <rc><c>C </c><c>   1</c></rc>
    <rc><c>C </c><c>   1</c></rc>
    <rc><c>C </c><c>   1</c></rc>
    <rc><c>C </c><c>   1</c></rc>
    <rc><c>C </c><c>   1</c></rc>
    <rc><c>C </c><c>   1</c></rc>
    <rc><c>C </c><c>   1</c></rc>
    <rc><c>C </c><c>   1</c></rc>
    <rc><c>C </c><c>   1</c></rc>
    <rc><c>C </c><c>   1</c></rc>
    <rc><c>C </c><c>   1</c></rc>
    <rc><c>C </c><c>   1</c></rc>
    <rc><c>C </c><c>   1</c></rc>
    <rc><c>C </c><c>   1</c></rc>
    <rc><c>C </c><c>   1</c></rc>
    <rc><c>C </c><c>   1</c></rc>
   </set>
  </array>
  <array name="atomtypes" >
   <dimension dim="1">type</dimension>
   <field type="int">atomspertype</field>
   <field type="string">element</field>
   <field>mass</field>
   <field>valence</field>
   <field type="string">pseudopotential</field>
   <set>
    <rc><c>  62</c><c>C </c><c>     12.01100000</c><c>      4.00000000</c><c>  PAW_PBE C 08Apr2002                   </c></rc>
   </set>
  </array>
 </atominfo>
 <structure name="initialpos" >
  <crystal>
   <varray name="basis" >
    <v>       9.77793745      -0.04025818       0.02897554 </v>
    <v>       4.86069124       8.48556873       0.02941921 </v>
    <v>       0.14859692       0.08830162      49.73165690 </v>
   </varray>
   <i name="volume">   4135.98516310 </i>
   <varray name="rec_basis" >
    <v>       0.10203102      -0.05844457      -0.00020109 </v>
    <v>       0.00048469       0.11757023      -0.00021020 </v>
    <v>      -0.00005973      -0.00003550       0.02010816 </v>
   </varray>
  </crystal>
  <varray name="positions" >
   <v>       0.99482403       0.99485387       0.38526325 </v>
   <v>       0.07804682       0.07816236       0.38598079 </v>
   <v>       0.08929337       0.08926390       0.45405424 </v>
   <v>       0.17346125       0.17341878       0.45424891 </v>
   <v>       0.99455985       0.24451806       0.38644784 </v>
   <v>       0.07889253       0.32822877       0.38666152 </v>
   <v>       0.09022351       0.33967811       0.45372557 </v>
   <v>       0.17635471       0.42359887       0.45134126 </v>
   <v>       0.99440620       0.49447934       0.38650914 </v>
   <v>       0.07917357       0.57773260       0.38834391 </v>
   <v>       0.08782385       0.59153303       0.45057756 </v>
   <v>       0.16841673       0.67622262       0.44723305 </v>
   <v>       0.99351979       0.74466110       0.38715126 </v>
   <v>       0.07729393       0.82817252       0.38720720 </v>
   <v>       0.08848264       0.83925859       0.45277420 </v>
   <v>       0.17192441       0.92309319       0.45283917 </v>
   <v>       0.24444477       0.99466823       0.38642874 </v>
   <v>       0.32815800       0.07897708       0.38665332 </v>
   <v>       0.33976303       0.09010300       0.45374233 </v>
   <v>       0.42369547       0.17617905       0.45136911 </v>
   <v>       0.24599994       0.24603481       0.38806952 </v>
   <v>       0.32918961       0.32918644       0.39356932 </v>
   <v>       0.34053457       0.34029216       0.45034490 </v>
   <v>       0.24287889       0.49672315       0.39500280 </v>
   <v>       0.30884664       0.59154704       0.40482701 </v>
   <v>       0.32500446       0.60803794       0.43510178 </v>
   <v>       0.41984261       0.67383096       0.44495936 </v>
   <v>       0.24039131       0.74823499       0.39271341 </v>
   <v>       0.32495629       0.82892698       0.38937890 </v>
   <v>       0.33887491       0.83743933       0.45164764 </v>
   <v>       0.42215525       0.92213146       0.45350391 </v>
   <v>       0.49445059       0.99443107       0.38649662 </v>
   <v>       0.57773184       0.07912459       0.38835160 </v>
   <v>       0.59164824       0.08763797       0.45062145 </v>
   <v>       0.67621555       0.16832814       0.44728564 </v>
   <v>       0.49676315       0.24273321       0.39503921 </v>
   <v>       0.59160074       0.30852651       0.40489675 </v>
   <v>       0.60776067       0.32501577       0.43517146 </v>
   <v>       0.67372825       0.41984016       0.44499574 </v>
   <v>       0.57607107       0.57627069       0.38965480 </v>
   <v>       0.58741625       0.58737787       0.44642973 </v>
   <v>       0.67060607       0.67052806       0.45193110 </v>
   <v>       0.49291043       0.74038474       0.38863125 </v>
   <v>       0.57684354       0.82646061       0.38625857 </v>
   <v>       0.58844647       0.83758763       0.45334796 </v>
   <v>       0.67216226       0.92189474       0.45357293 </v>
   <v>       0.74468011       0.99347055       0.38715996 </v>
   <v>       0.82812416       0.07730515       0.38722484 </v>
   <v>       0.83931174       0.08839210       0.45279189 </v>
   <v>       0.92308535       0.17190253       0.45284789 </v>
   <v>       0.74818803       0.24034172       0.39276597 </v>
   <v>       0.82878291       0.32502988       0.38942288 </v>
   <v>       0.83743274       0.33883118       0.45165540 </v>
   <v>       0.92219824       0.42208494       0.45349160 </v>
   <v>       0.74024940       0.49296619       0.38865925 </v>
   <v>       0.82638341       0.57688455       0.38627552 </v>
   <v>       0.83771306       0.58833453       0.45333991 </v>
   <v>       0.92204553       0.67204623       0.45355394 </v>
   <v>       0.74314277       0.74314573       0.38575190 </v>
   <v>       0.82731425       0.82729983       0.38594564 </v>
   <v>       0.83855794       0.83840193       0.45402084 </v>
   <v>       0.92178190       0.92170977       0.45473682 </v>
  </varray>
  <varray name="velocities" >
   <v>       0.00000000       0.00000000       0.00000000 </v>
   <v>       0.00000000       0.00000000       0.00000000 </v>
   <v>       0.00000000       0.00000000       0.00000000 </v>
   <v>       0.00000000       0.00000000       0.00000000 </v>
   <v>       0.00000000       0.00000000       0.00000000 </v>
   <v>       0.00000000       0.00000000       0.00000000 </v>
   <v>       0.00000000       0.00000000       0.00000000 </v>
   <v>       0.00000000       0.00000000       0.00000000 </v>
   <v>       0.00000000       0.00000000       0.00000000 </v>
   <v>       0.00000000       0.00000000       0.00000000 </v>
   <v>       0.00000000       0.00000000       0.00000000 </v>
   <v>       0.00000000       0.00000000       0.00000000 </v>
   <v>       0.00000000       0.00000000       0.00000000 </v>
   <v>       0.00000000       0.00000000       0.00000000 </v>
   <v>       0.00000000       0.00000000       0.00000000 </v>
   <v>       0.00000000       0.00000000       0.00000000 </v>
   <v>       0.00000000       0.00000000       0.00000000 </v>
   <v>       0.00000000       0.00000000       0.00000000 </v>
   <v>       0.00000000       0.00000000       0.00000000 </v>
   <v>       0.00000000       0.00000000       0.00000000 </v>
   <v>       0.00000000       0.00000000       0.00000000 </v>
   <v>       0.00000000       0.00000000       0.00000000 </v>
   <v>       0.00000000       0.00000000       0.00000000 </v>
   <v>       0.00000000       0.00000000       0.00000000 </v>
   <v>       0.00000000       0.00000000       0.00000000 </v>
   <v>       0.00000000       0.00000000       0.00000000 </v>
   <v>       0.00000000       0.00000000       0.00000000 </v>
   <v>       0.00000000       0.00000000       0.00000000 </v>
   <v>       0.00000000       0.00000000       0.00000000 </v>
   <v>       0.00000000       0.00000000       0.00000000 </v>
   <v>       0.00000000       0.00000000       0.00000000 </v>
   <v>       0.00000000       0.00000000       0.00000000 </v>
   <v>       0.00000000       0.00000000       0.00000000 </v>
   <v>       0.00000000       0.00000000       0.00000000 </v>
   <v>       0.00000000       0.00000000       0.00000000 </v>
   <v>       0.00000000       0.00000000       0.00000000 </v>
   <v>       0.00000000       0.00000000       0.00000000 </v>
   <v>       0.00000000       0.00000000       0.00000000 </v>
   <v>       0.00000000       0.00000000       0.00000000 </v>
   <v>       0.00000000       0.00000000       0.00000000 </v>
   <v>       0.00000000       0.00000000       0.00000000 </v>
   <v>       0.00000000       0.00000000       0.00000000 </v>
   <v>       0.00000000       0.00000000       0.00000000 </v>
   <v>       0.00000000       0.00000000       0.00000000 </v>
   <v>       0.00000000       0.00000000       0.00000000 </v>
   <v>       0.00000000       0.00000000       0.00000000 </v>
   <v>       0.00000000       0.00000000       0.00000000 </v>
   <v>       0.00000000       0.00000000       0.00000000 </v>
   <v>       0.00000000       0.00000000       0.00000000 </v>
   <v>       0.00000000       0.00000000       0.00000000 </v>
   <v>       0.00000000       0.00000000       0.00000000 </v>
   <v>       0.00000000       0.00000000       0.00000000 </v>
   <v>       0.00000000       0.00000000       0.00000000 </v>
   <v>       0.00000000       0.00000000       0.00000000 </v>
   <v>       0.00000000       0.00000000       0.00000000 </v>
   <v>       0.00000000       0.00000000       0.00000000 </v>
   <v>       0.00000000       0.00000000       0.00000000 </v>
   <v>       0.00000000       0.00000000       0.00000000 </v>
   <v>       0.00000000       0.00000000       0.00000000 </v>
   <v>       0.00000000       0.00000000       0.00000000 </v>
   <v>       0.00000000       0.00000000       0.00000000 </v>
   <v>       0.00000000       0.00000000       0.00000000 </v>
  </varray>
 </structure>
 <calculation>
  <scstep>
   <time name="dav">  312.94  313.78</time>
   <time name="total">  314.77  315.62</time>
   <energy>
    <i name="alphaZ">     76.34746351 </i>
    <i name="ewald"> 212750.54421994 </i>
    <i name="hartreedc">-219227.99011850 </i>
    <i name="XCdc">    829.53924864 </i>
    <i name="pawpsdc">   6720.41546902 </i>
    <i name="pawaedc">  -6755.16969339 </i>
    <i name="eentropy">      0.00000000 </i>
    <i name="bandstr">   -592.94373812 </i>
    <i name="atom">   9123.59704331 </i>
    <i name="e_fr_energy">   2924.33989441 </i>
    <i name="e_wo_entrp">   2924.33989441 </i>
    <i name="e_0_energy">   2924.33989441 </i>
   </energy>
  </scstep>
  <scstep>
   <time name="dav">  444.85  445.94</time>
   <time name="total">  444.88  445.98</time>
   <energy>
    <i name="e_fr_energy">     83.37445608 </i>
    <i name="e_wo_entrp">     83.37445608 </i>
    <i name="e_0_energy">     83.37445608 </i>
   </energy>
  </scstep>
  <scstep>
   <time name="dav">  368.25  369.17</time>
   <time name="total">  368.29  369.20</time>
   <energy>
    <i name="e_fr_energy">   -542.25165382 </i>
    <i name="e_wo_entrp">   -542.25165382 </i>
    <i name="e_0_energy">   -542.25165382 </i>
   </energy>
  </scstep>
  <scstep>
   <time name="dav">  369.19  370.09</time>
   <time name="total">  369.22  370.13</time>
   <energy>
    <i name="e_fr_energy">   -568.76861849 </i>
    <i name="e_wo_entrp">   -568.76861849 </i>
    <i name="e_0_energy">   -568.76861849 </i>
   </energy>
  </scstep>
  <scstep>
   <time name="dav">  388.40  389.34</time>
   <time name="total">  410.17  411.17</time>
   <energy>
    <i name="e_fr_energy">   -569.47506845 </i>
    <i name="e_wo_entrp">   -569.47506845 </i>
    <i name="e_0_energy">   -569.47506845 </i>
   </energy>
  </scstep>
  <scstep>
   <time name="dav">  327.51  328.30</time>
   <time name="total">  350.32  351.17</time>
   <energy>
    <i name="e_fr_energy">   -404.06189236 </i>
    <i name="e_wo_entrp">   -404.06189236 </i>
    <i name="e_0_energy">   -404.06189236 </i>
   </energy>
  </scstep>
  <scstep>
   <time name="dav">  343.11  343.94</time>
   <time name="total">  367.43  368.33</time>
   <energy>
    <i name="e_fr_energy">   -430.41669230 </i>
    <i name="e_wo_entrp">   -430.41669230 </i>
    <i name="e_0_energy">   -430.41669230 </i>
   </energy>
  </scstep>
  <scstep>
   <time name="dav">  334.53  335.33</time>
   <time name="total">  357.46  358.33</time>
   <energy>
    <i name="e_fr_energy">   -440.49711991 </i>
    <i name="e_wo_entrp">   -440.49711991 </i>
    <i name="e_0_energy">   -440.49711991 </i>
   </energy>
  </scstep>
  <scstep>
   <time name="dav">  334.87  335.68</time>
   <time name="total">  357.34  358.22</time>
   <energy>
    <i name="e_fr_energy">   -456.25962246 </i>
    <i name="e_wo_entrp">   -456.25962246 </i>
    <i name="e_0_energy">   -456.25962246 </i>
   </energy>
  </scstep>
  <scstep>
   <time name="dav">  327.68  328.47</time>
   <time name="total">  351.19  352.04</time>
   <energy>
    <i name="e_fr_energy">   -483.73816145 </i>
    <i name="e_wo_entrp">   -483.73816145 </i>
    <i name="e_0_energy">   -483.73816145 </i>
   </energy>
  </scstep>
  <scstep>
   <time name="dav">  325.70  326.52</time>
   <time name="total">  350.16  351.05</time>
   <energy>
    <i name="e_fr_energy">   -506.33764097 </i>
    <i name="e_wo_entrp">   -506.33764097 </i>
    <i name="e_0_energy">   -506.33764097 </i>
   </energy>
  </scstep>
  <scstep>
   <time name="dav">  320.65  321.45</time>
   <time name="total">  343.92  344.78</time>
   <energy>
    <i name="e_fr_energy">   -532.77804083 </i>
    <i name="e_wo_entrp">   -532.77804083 </i>
    <i name="e_0_energy">   -532.77804083 </i>
   </energy>
  </scstep>
  <scstep>
   <time name="dav">  324.08  324.89</time>
   <time name="total">  347.05  347.92</time>
   <energy>
    <i name="e_fr_energy">   -545.75807861 </i>
    <i name="e_wo_entrp">   -545.75807861 </i>
    <i name="e_0_energy">   -545.75807861 </i>
   </energy>
  </scstep>
  <scstep>
   <time name="dav">  328.41  329.21</time>
   <time name="total">  352.68  353.55</time>
   <energy>
    <i name="e_fr_energy">   -549.66100285 </i>
    <i name="e_wo_entrp">   -549.66100285 </i>
    <i name="e_0_energy">   -549.66100285 </i>
   </energy>
  </scstep>
  <scstep>
   <time name="dav">  320.16  320.93</time>
   <time name="total">  342.58  343.42</time>
   <energy>
    <i name="e_fr_energy">   -552.45037926 </i>
    <i name="e_wo_entrp">   -552.45037926 </i>
    <i name="e_0_energy">   -552.45037926 </i>
   </energy>
  </scstep>
  <scstep>
   <time name="dav">  313.85  314.61</time>
   <time name="total">  337.67  338.51</time>
   <energy>
    <i name="e_fr_energy">   -554.19086391 </i>
    <i name="e_wo_entrp">   -554.19086391 </i>
    <i name="e_0_energy">   -554.19086391 </i>
   </energy>
  </scstep>
  <scstep>
   <time name="dav">  321.25  322.08</time>
   <time name="total">  345.34  346.24</time>
   <energy>
    <i name="e_fr_energy">   -554.85746656 </i>
    <i name="e_wo_entrp">   -554.85746656 </i>
    <i name="e_0_energy">   -554.85746656 </i>
   </energy>
  </scstep>
  <scstep>
   <time name="dav">  321.84  322.69</time>
   <time name="total">  344.19  345.10</time>
   <energy>
    <i name="e_fr_energy">   -556.81292016 </i>
    <i name="e_wo_entrp">   -556.81292016 </i>
    <i name="e_0_energy">   -556.81292016 </i>
   </energy>
  </scstep>
  <scstep>
   <time name="dav">  317.70  318.48</time>
   <time name="total">  341.25  342.09</time>
   <energy>
    <i name="e_fr_energy">   -556.37593981 </i>
    <i name="e_wo_entrp">   -556.37593981 </i>
    <i name="e_0_energy">   -556.37593981 </i>
   </energy>
  </scstep>
  <scstep>
   <time name="dav">  302.77  303.50</time>
   <time name="total">  326.23  327.02</time>
   <energy>
    <i name="e_fr_energy">   -556.57255762 </i>
    <i name="e_wo_entrp">   -556.57255762 </i>
    <i name="e_0_energy">   -556.57255762 </i>
   </energy>
  </scstep>
  <scstep>
   <time name="dav">  319.69  320.47</time>
   <time name="total">  342.90  343.73</time>
   <energy>
    <i name="e_fr_energy">   -557.22834473 </i>
    <i name="e_wo_entrp">   -557.22834473 </i>
    <i name="e_0_energy">   -557.22834473 </i>
   </energy>
  </scstep>
  <scstep>
   <time name="dav">  313.92  314.69</time>
   <time name="total">  338.52  339.36</time>
   <energy>
    <i name="e_fr_energy">   -557.61195244 </i>
    <i name="e_wo_entrp">   -557.61195244 </i>
    <i name="e_0_energy">   -557.61195244 </i>
   </energy>
  </scstep>
  <scstep>
   <time name="dav">  309.55  310.29</time>
   <time name="total">  331.94  332.75</time>
   <energy>
    <i name="e_fr_energy">   -557.64615659 </i>
    <i name="e_wo_entrp">   -557.64615659 </i>
    <i name="e_0_energy">   -557.64615659 </i>
   </energy>
  </scstep>
  <scstep>
   <time name="dav">  303.69  304.42</time>
   <time name="total">  328.06  328.86</time>
   <energy>
    <i name="e_fr_energy">   -557.70785163 </i>
    <i name="e_wo_entrp">   -557.70785163 </i>
    <i name="e_0_energy">   -557.70785163 </i>
   </energy>
  </scstep>
  <scstep>
   <time name="dav">  310.71  311.45</time>
   <time name="total">  333.34  334.15</time>
   <energy>
    <i name="e_fr_energy">   -557.73128482 </i>
    <i name="e_wo_entrp">   -557.73128482 </i>
    <i name="e_0_energy">   -557.73128482 </i>
   </energy>
  </scstep>
  <scstep>
   <time name="dav">  321.64  322.43</time>
   <time name="total">  344.35  345.21</time>
   <energy>
    <i name="e_fr_energy">   -557.73715145 </i>
    <i name="e_wo_entrp">   -557.73715145 </i>
    <i name="e_0_energy">   -557.73715145 </i>
   </energy>
  </scstep>
  <scstep>
   <time name="dav">  307.09  307.83</time>
   <time name="total">  330.83  331.63</time>
   <energy>
    <i name="e_fr_energy">   -557.74290127 </i>
    <i name="e_wo_entrp">   -557.74290127 </i>
    <i name="e_0_energy">   -557.74290127 </i>
   </energy>
  </scstep>
  <scstep>
   <time name="dav">  312.36  313.10</time>
   <time name="total">  335.11  335.91</time>
   <energy>
    <i name="e_fr_energy">   -557.74818779 </i>
    <i name="e_wo_entrp">   -557.74818779 </i>
    <i name="e_0_energy">   -557.74818779 </i>
   </energy>
  </scstep>
  <scstep>
   <time name="dav">  328.32  329.11</time>
   <time name="total">  350.70  351.56</time>
   <energy>
    <i name="e_fr_energy">   -557.75115946 </i>
    <i name="e_wo_entrp">   -557.75115946 </i>
    <i name="e_0_energy">   -557.75115946 </i>
   </energy>
  </scstep>
  <scstep>
   <time name="dav">  316.66  317.42</time>
   <time name="total">  339.30  340.12</time>
   <energy>
    <i name="e_fr_energy">   -557.75230480 </i>
    <i name="e_wo_entrp">   -557.75230480 </i>
    <i name="e_0_energy">   -557.75230480 </i>
   </energy>
  </scstep>
  <scstep>
   <time name="dav">  317.69  318.46</time>
   <time name="total">  340.74  341.56</time>
   <energy>
    <i name="e_fr_energy">   -557.75281787 </i>
    <i name="e_wo_entrp">   -557.75281787 </i>
    <i name="e_0_energy">   -557.75281787 </i>
   </energy>
  </scstep>
  <scstep>
   <time name="dav">  317.44  318.21</time>
   <time name="total">  341.86  342.70</time>
   <energy>
    <i name="e_fr_energy">   -557.75312990 </i>
    <i name="e_wo_entrp">   -557.75312990 </i>
    <i name="e_0_energy">   -557.75312990 </i>
   </energy>
  </scstep>
  <scstep>
   <time name="dav">  292.92  293.64</time>
   <time name="total">  315.42  316.20</time>
   <energy>
    <i name="e_fr_energy">   -557.75335454 </i>
    <i name="e_wo_entrp">   -557.75335454 </i>
    <i name="e_0_energy">   -557.75335454 </i>
   </energy>
  </scstep>
  <scstep>
   <time name="dav">  291.01  291.72</time>
   <time name="total">  315.31  316.10</time>
   <energy>
    <i name="e_fr_energy">   -557.75347127 </i>
    <i name="e_wo_entrp">   -557.75347127 </i>
    <i name="e_0_energy">   -557.75347127 </i>
   </energy>
  </scstep>
  <scstep>
   <time name="dav">  276.68  277.35</time>
   <time name="total">  299.40  300.13</time>
   <energy>
    <i name="e_fr_energy">   -557.75352119 </i>
    <i name="e_wo_entrp">   -557.75352119 </i>
    <i name="e_0_energy">   -557.75352119 </i>
   </energy>
  </scstep>
  <scstep>
   <time name="dav">  254.31  254.95</time>
   <time name="total">  278.21  278.91</time>
   <energy>
    <i name="e_fr_energy">   -557.75355066 </i>
    <i name="e_wo_entrp">   -557.75355066 </i>
    <i name="e_0_energy">   -557.75355066 </i>
   </energy>
  </scstep>
  <scstep>
   <time name="dav">  252.96  253.57</time>
   <time name="total">  275.53  276.20</time>
   <energy>
    <i name="e_fr_energy">   -557.75356443 </i>
    <i name="e_wo_entrp">   -557.75356443 </i>
    <i name="e_0_energy">   -557.75356443 </i>
   </energy>
  </scstep>
  <scstep>
   <time name="dav">  249.51  250.12</time>
   <time name="total">  271.82  272.50</time>
   <energy>
    <i name="e_fr_energy">   -557.75357349 </i>
    <i name="e_wo_entrp">   -557.75357349 </i>
    <i name="e_0_energy">   -557.75357349 </i>
   </energy>
  </scstep>
  <scstep>
   <time name="dav">  244.58  245.17</time>
   <time name="total">  267.04  267.69</time>
   <energy>
    <i name="e_fr_energy">   -557.75357854 </i>
    <i name="e_wo_entrp">   -557.75357854 </i>
    <i name="e_0_energy">   -557.75357854 </i>
   </energy>
  </scstep>
  <scstep>
   <time name="dav">  243.13  243.72</time>
   <time name="total">  265.94  266.60</time>
   <energy>
    <i name="e_fr_energy">   -557.75358131 </i>
    <i name="e_wo_entrp">   -557.75358131 </i>
    <i name="e_0_energy">   -557.75358131 </i>
   </energy>
  </scstep>
  <scstep>
   <time name="dav">  247.79  248.39</time>
   <time name="total">  272.13  272.80</time>
   <energy>
    <i name="e_fr_energy">   -557.75358288 </i>
    <i name="e_wo_entrp">   -557.75358288 </i>
    <i name="e_0_energy">   -557.75358288 </i>
   </energy>
  </scstep>
  <scstep>
   <time name="dav">  240.68  241.27</time>
   <time name="total">  263.60  264.25</time>
   <energy>
    <i name="e_fr_energy">   -557.75358362 </i>
    <i name="e_wo_entrp">   -557.75358362 </i>
    <i name="e_0_energy">   -557.75358362 </i>
   </energy>
  </scstep>
  <scstep>
   <time name="dav">  239.36  239.94</time>
   <time name="total">  263.78  264.42</time>
   <energy>
    <i name="e_fr_energy">   -557.75358406 </i>
    <i name="e_wo_entrp">   -557.75358406 </i>
    <i name="e_0_energy">   -557.75358406 </i>
   </energy>
  </scstep>
  <scstep>
   <time name="dav">  242.21  242.81</time>
   <time name="total">  267.06  267.73</time>
   <energy>
    <i name="e_fr_energy">   -557.75358428 </i>
    <i name="e_wo_entrp">   -557.75358428 </i>
    <i name="e_0_energy">   -557.75358428 </i>
   </energy>
  </scstep>
  <scstep>
   <time name="dav">  244.27  244.86</time>
   <time name="total">  246.02  246.62</time>
   <energy>
    <i name="alphaZ">     76.34746351 </i>
    <i name="ewald"> 212750.54421994 </i>
    <i name="hartreedc">-220276.77082661 </i>
    <i name="XCdc">    853.05452478 </i>
    <i name="pawpsdc">  25572.84643971 </i>
    <i name="pawaedc"> -25614.82945190 </i>
    <i name="eentropy">      0.00000000 </i>
    <i name="bandstr">  -3042.54299712 </i>
    <i name="atom">   9123.59704331 </i>
    <i name="e_fr_energy">   -557.75358438 </i>
    <i name="e_wo_entrp">   -557.75358438 </i>
    <i name="e_0_energy">   -557.75358438 </i>
   </energy>
  </scstep>
  <structure>
   <crystal>
    <varray name="basis" >
     <v>       9.77793745      -0.04025818       0.02897554 </v>
     <v>       4.86069124       8.48556873       0.02941921 </v>
     <v>       0.14859692       0.08830162      49.73165690 </v>
    </varray>
    <i name="volume">   4135.98516310 </i>
    <varray name="rec_basis" >
     <v>       0.10203102      -0.05844457      -0.00020109 </v>
     <v>       0.00048469       0.11757023      -0.00021020 </v>
     <v>      -0.00005973      -0.00003550       0.02010816 </v>
    </varray>
   </crystal>
   <varray name="positions" >
    <v>       0.99482403       0.99485387       0.38526325 </v>
    <v>       0.07804682       0.07816236       0.38598079 </v>
    <v>       0.08929337       0.08926390       0.45405424 </v>
    <v>       0.17346125       0.17341878       0.45424891 </v>
    <v>       0.99455985       0.24451806       0.38644784 </v>
    <v>       0.07889253       0.32822877       0.38666152 </v>
    <v>       0.09022351       0.33967811       0.45372557 </v>
    <v>       0.17635471       0.42359887       0.45134126 </v>
    <v>       0.99440620       0.49447934       0.38650914 </v>
    <v>       0.07917357       0.57773260       0.38834391 </v>
    <v>       0.08782385       0.59153303       0.45057756 </v>
    <v>       0.16841673       0.67622262       0.44723305 </v>
    <v>       0.99351979       0.74466110       0.38715126 </v>
    <v>       0.07729393       0.82817252       0.38720720 </v>
    <v>       0.08848264       0.83925859       0.45277420 </v>
    <v>       0.17192441       0.92309319       0.45283917 </v>
    <v>       0.24444477       0.99466823       0.38642874 </v>
    <v>       0.32815800       0.07897708       0.38665332 </v>
    <v>       0.33976303       0.09010300       0.45374233 </v>
    <v>       0.42369547       0.17617905       0.45136911 </v>
    <v>       0.24599994       0.24603481       0.38806952 </v>
    <v>       0.32918961       0.32918644       0.39356932 </v>
    <v>       0.34053457       0.34029216       0.45034490 </v>
    <v>       0.24287889       0.49672315       0.39500280 </v>
    <v>       0.30884664       0.59154704       0.40482701 </v>
    <v>       0.32500446       0.60803794       0.43510178 </v>
    <v>       0.41984261       0.67383096       0.44495936 </v>
    <v>       0.24039131       0.74823499       0.39271341 </v>
    <v>       0.32495629       0.82892698       0.38937890 </v>
    <v>       0.33887491       0.83743933       0.45164764 </v>
    <v>       0.42215525       0.92213146       0.45350391 </v>
    <v>       0.49445059       0.99443107       0.38649662 </v>
    <v>       0.57773184       0.07912459       0.38835160 </v>
    <v>       0.59164824       0.08763797       0.45062145 </v>
    <v>       0.67621555       0.16832814       0.44728564 </v>
    <v>       0.49676315       0.24273321       0.39503921 </v>
    <v>       0.59160074       0.30852651       0.40489675 </v>
    <v>       0.60776067       0.32501577       0.43517146 </v>
    <v>       0.67372825       0.41984016       0.44499574 </v>
    <v>       0.57607107       0.57627069       0.38965480 </v>
    <v>       0.58741625       0.58737787       0.44642973 </v>
    <v>       0.67060607       0.67052806       0.45193110 </v>
    <v>       0.49291043       0.74038474       0.38863125 </v>
    <v>       0.57684354       0.82646061       0.38625857 </v>
    <v>       0.58844647       0.83758763       0.45334796 </v>
    <v>       0.67216226       0.92189474       0.45357293 </v>
    <v>       0.74468011       0.99347055       0.38715996 </v>
    <v>       0.82812416       0.07730515       0.38722484 </v>
    <v>       0.83931174       0.08839210       0.45279189 </v>
    <v>       0.92308535       0.17190253       0.45284789 </v>
    <v>       0.74818803       0.24034172       0.39276597 </v>
    <v>       0.82878291       0.32502988       0.38942288 </v>
    <v>       0.83743274       0.33883118       0.45165540 </v>
    <v>       0.92219824       0.42208494       0.45349160 </v>
    <v>       0.74024940       0.49296619       0.38865925 </v>
    <v>       0.82638341       0.57688455       0.38627552 </v>
    <v>       0.83771306       0.58833453       0.45333991 </v>
    <v>       0.92204553       0.67204623       0.45355394 </v>
    <v>       0.74314277       0.74314573       0.38575190 </v>
    <v>       0.82731425       0.82729983       0.38594564 </v>
    <v>       0.83855794       0.83840193       0.45402084 </v>
    <v>       0.92178190       0.92170977       0.45473682 </v>
   </varray>
  </structure>
  <varray name="forces" >
   <v>      -0.00957394       0.00271432       0.01049151 </v>
   <v>       0.01423470      -0.00314898       0.00163398 </v>
   <v>      -0.07068328      -0.03309863      -0.01351563 </v>
   <v>       0.08026103       0.03684593      -0.00997719 </v>
   <v>      -0.01343220      -0.01501846      -0.00232502 </v>
   <v>       0.01840613       0.03407283      -0.00519564 </v>
   <v>      -0.01472635      -0.04714381      -0.00270202 </v>
   <v>       0.03705568       0.01593701      -0.00312009 </v>
   <v>      -0.02319176      -0.06373098      -0.00190662 </v>
   <v>       0.03497808       0.06847073       0.00371225 </v>
   <v>      -0.02517756      -0.01405670       0.00842198 </v>
   <v>       0.02022054      -0.00107276      -0.00295147 </v>
   <v>      -0.04481933      -0.05677281       0.00874111 </v>
   <v>       0.00745828       0.02146551       0.00541270 </v>
   <v>      -0.02997370       0.01361421      -0.00381496 </v>
   <v>       0.07827091       0.00080668      -0.00963056 </v>
   <v>      -0.02880023       0.00892418      -0.00330384 </v>
   <v>       0.04599356      -0.01212974      -0.00580395 </v>
   <v>      -0.05729570       0.01983052      -0.00258976 </v>
   <v>       0.03756763       0.01809878      -0.00340153 </v>
   <v>      -0.04939685      -0.02132552      -0.02060301 </v>
   <v>       0.05186516       0.02605446       0.00090389 </v>
   <v>      -0.01359486      -0.00290287       0.00489730 </v>
   <v>      -0.01287052      -0.02240090      -0.00890394 </v>
   <v>      -0.00626263       0.00060014      -0.00966344 </v>
   <v>       0.00130779       0.00499116       0.01245739 </v>
   <v>       0.02809248      -0.00538459       0.00928400 </v>
   <v>      -0.01313383      -0.01347029       0.00199085 </v>
   <v>       0.02897699       0.00355991      -0.00684557 </v>
   <v>      -0.08297197       0.00908381      -0.00276449 </v>
   <v>       0.07367224      -0.01818067       0.00201679 </v>
   <v>      -0.07348588       0.01904636      -0.00197780 </v>
   <v>       0.08192410      -0.00931834       0.00277613 </v>
   <v>      -0.02800458      -0.00431022       0.00685309 </v>
   <v>       0.01239191       0.01367923      -0.00204164 </v>
   <v>      -0.02801267       0.00559543      -0.00908359 </v>
   <v>      -0.00141061      -0.00492702      -0.01229294 </v>
   <v>       0.00631467      -0.00058301       0.00990468 </v>
   <v>       0.01276131       0.02261893       0.00905239 </v>
   <v>       0.01325532       0.00351661      -0.00489361 </v>
   <v>      -0.05174403      -0.02639033      -0.00076127 </v>
   <v>       0.04910983       0.02193091       0.02062475 </v>
   <v>      -0.03792177      -0.01817975       0.00338905 </v>
   <v>       0.05654018      -0.01978137       0.00253330 </v>
   <v>      -0.04534043       0.01118395       0.00571928 </v>
   <v>       0.02776298      -0.00780751       0.00307907 </v>
   <v>      -0.07675724      -0.00065096       0.00964717 </v>
   <v>       0.02891658      -0.01352353       0.00392788 </v>
   <v>      -0.00752241      -0.02226339      -0.00529995 </v>
   <v>       0.04598878       0.05679237      -0.00865386 </v>
   <v>      -0.01991268       0.00064477       0.00289040 </v>
   <v>       0.02467262       0.01507385      -0.00839028 </v>
   <v>      -0.03531813      -0.06852929      -0.00366363 </v>
   <v>       0.02390979       0.06311284       0.00191881 </v>
   <v>      -0.03642390      -0.01705956       0.00304875 </v>
   <v>       0.01390108       0.04821210       0.00260447 </v>
   <v>      -0.01824515      -0.03375320       0.00512312 </v>
   <v>       0.01364660       0.01452635       0.00212379 </v>
   <v>      -0.07869083      -0.03750055       0.00988937 </v>
   <v>       0.06894599       0.03308377       0.01344363 </v>
   <v>      -0.01349580       0.00277579      -0.00181492 </v>
   <v>       0.00978786      -0.00244768      -0.01062067 </v>
  </varray>
  <varray name="stress" >
   <v>      -0.09765113       0.14039617       0.07547782 </v>
   <v>       0.14039624      -0.20977475       0.04589063 </v>
   <v>       0.07547782       0.04589063      -0.15015495 </v>
  </varray>
  <energy>
   <i name="e_fr_energy">   -565.05047903 </i>
   <i name="e_wo_entrp">   -565.05047903 </i>
   <i name="e_0_energy">      0.00000000 </i>
  </energy>
  <time name="totalsc">15112.2415149.62</time>
  <eigenvalues>
   <array>
    <dimension dim="1">band</dimension>
    <dimension dim="2">kpoint</dimension>
    <dimension dim="3">spin</dimension>
    <field>eigene</field>
    <field>occ</field>
    <set>
     <set comment="spin 1">
      <set comment="kpoint 1">
       <r>  -22.8821    1.0000 </r>
       <r>  -22.5178    1.0000 </r>
       <r>  -21.8125    1.0000 </r>
       <r>  -21.4985    1.0000 </r>
       <r>  -21.4019    1.0000 </r>
       <r>  -21.3877    1.0000 </r>
       <r>  -21.3205    1.0000 </r>
       <r>  -21.2363    1.0000 </r>
       <r>  -21.1970    1.0000 </r>
       <r>  -21.1821    1.0000 </r>
       <r>  -21.1655    1.0000 </r>
       <r>  -20.9852    1.0000 </r>
       <r>  -20.7409    1.0000 </r>
       <r>  -19.9542    1.0000 </r>
       <r>  -19.0692    1.0000 </r>
       <r>  -18.7389    1.0000 </r>
       <r>  -18.6070    1.0000 </r>
       <r>  -18.5505    1.0000 </r>
       <r>  -18.4143    1.0000 </r>
       <r>  -18.3258    1.0000 </r>
       <r>  -18.3087    1.0000 </r>
       <r>  -18.2849    1.0000 </r>
       <r>  -18.2236    1.0000 </r>
       <r>  -18.0402    1.0000 </r>
       <r>  -17.9332    1.0000 </r>
       <r>  -17.7987    1.0000 </r>
       <r>  -17.7032    1.0000 </r>
       <r>  -17.6700    1.0000 </r>
       <r>  -17.3847    1.0000 </r>
       <r>  -17.3103    1.0000 </r>
       <r>  -16.9651    1.0000 </r>
       <r>  -16.6830    1.0000 </r>
       <r>  -16.3252    1.0000 </r>
       <r>  -16.1996    1.0000 </r>
       <r>  -16.1659    1.0000 </r>
       <r>  -16.0350    1.0000 </r>
       <r>  -15.5985    1.0000 </r>
       <r>  -14.8719    1.0000 </r>
       <r>  -14.3330    1.0000 </r>
       <r>  -13.7986    1.0000 </r>
       <r>  -13.7912    1.0000 </r>
       <r>  -13.7181    1.0000 </r>
       <r>  -13.7011    1.0000 </r>
       <r>  -13.6994    1.0000 </r>
       <r>  -13.6807    1.0000 </r>
       <r>  -13.6631    1.0000 </r>
       <r>  -13.3759    1.0000 </r>
       <r>  -13.2464    1.0000 </r>
       <r>  -12.4765    1.0000 </r>
       <r>  -12.3796    1.0000 </r>
       <r>  -12.3737    1.0000 </r>
       <r>  -12.2667    1.0000 </r>
       <r>  -12.2309    1.0000 </r>
       <r>  -12.1715    1.0000 </r>
       <r>  -12.1118    1.0000 </r>
       <r>  -12.0825    1.0000 </r>
       <r>  -11.9754    1.0000 </r>
       <r>  -11.6510    1.0000 </r>
       <r>  -11.6428    1.0000 </r>
       <r>  -11.5854    1.0000 </r>
       <r>  -11.5636    1.0000 </r>
       <r>  -11.3121    1.0000 </r>
       <r>  -11.2615    1.0000 </r>
       <r>  -11.0527    1.0000 </r>
       <r>  -10.9084    1.0000 </r>
       <r>  -10.7076    1.0000 </r>
       <r>  -10.6841    1.0000 </r>
       <r>  -10.6795    1.0000 </r>
       <r>  -10.5611    1.0000 </r>
       <r>  -10.5060    1.0000 </r>
       <r>  -10.3115    1.0000 </r>
       <r>  -10.1171    1.0000 </r>
       <r>  -10.0873    1.0000 </r>
       <r>  -10.0248    1.0000 </r>
       <r>   -9.9537    1.0000 </r>
       <r>   -9.9114    1.0000 </r>
       <r>   -9.7520    1.0000 </r>
       <r>   -9.6922    1.0000 </r>
       <r>   -9.6269    1.0000 </r>
       <r>   -9.6119    1.0000 </r>
       <r>   -9.5768    1.0000 </r>
       <r>   -9.4899    1.0000 </r>
       <r>   -9.1530    1.0000 </r>
       <r>   -9.0740    1.0000 </r>
       <r>   -9.0313    1.0000 </r>
       <r>   -9.0046    1.0000 </r>
       <r>   -8.6359    1.0000 </r>
       <r>   -8.5589    1.0000 </r>
       <r>   -8.5423    1.0000 </r>
       <r>   -8.4986    1.0000 </r>
       <r>   -8.4728    1.0000 </r>
       <r>   -8.4711    1.0000 </r>
       <r>   -8.4084    1.0000 </r>
       <r>   -8.3597    1.0000 </r>
       <r>   -8.2963    1.0000 </r>
       <r>   -8.2040    1.0000 </r>
       <r>   -8.1886    1.0000 </r>
       <r>   -8.1192    1.0000 </r>
       <r>   -8.0395    1.0000 </r>
       <r>   -7.9106    1.0000 </r>
       <r>   -7.8348    1.0000 </r>
       <r>   -7.1534    1.0000 </r>
       <r>   -6.8220    1.0000 </r>
       <r>   -6.8154    1.0000 </r>
       <r>   -6.6237    1.0000 </r>
       <r>   -6.6001    1.0000 </r>
       <r>   -6.5117    1.0000 </r>
       <r>   -6.3052    1.0000 </r>
       <r>   -6.1719    1.0000 </r>
       <r>   -6.1571    1.0000 </r>
       <r>   -5.9933    1.0000 </r>
       <r>   -5.9154    1.0000 </r>
       <r>   -5.9063    1.0000 </r>
       <r>   -5.7440    1.0000 </r>
       <r>   -5.4791    1.0000 </r>
       <r>   -5.4634    1.0000 </r>
       <r>   -5.3320    1.0000 </r>
       <r>   -5.2656    1.0000 </r>
       <r>   -5.2542    1.0000 </r>
       <r>   -5.1958    1.0000 </r>
       <r>   -4.9131    1.0000 </r>
       <r>   -4.6865    1.0000 </r>
       <r>   -4.4808    1.0000 </r>
       <r>   -4.4127    1.0000 </r>
       <r>   -2.8661    0.0000 </r>
       <r>   -2.5189    0.0000 </r>
       <r>   -2.0338    0.0000 </r>
       <r>   -1.7889    0.0000 </r>
       <r>   -1.7300    0.0000 </r>
       <r>   -1.3460    0.0000 </r>
       <r>   -1.1712    0.0000 </r>
       <r>   -1.1546    0.0000 </r>
       <r>   -1.0861    0.0000 </r>
       <r>   -0.9580    0.0000 </r>
       <r>   -0.9141    0.0000 </r>
       <r>   -0.8872    0.0000 </r>
       <r>   -0.4995    0.0000 </r>
       <r>   -0.4663    0.0000 </r>
       <r>   -0.3931    0.0000 </r>
       <r>   -0.1970    0.0000 </r>
       <r>   -0.1806    0.0000 </r>
       <r>   -0.1093    0.0000 </r>
       <r>    0.4290    0.0000 </r>
       <r>    0.7336    0.0000 </r>
       <r>    1.0062    0.0000 </r>
       <r>    1.2050    0.0000 </r>
       <r>    1.2963    0.0000 </r>
       <r>    1.4026    0.0000 </r>
       <r>    1.4129    0.0000 </r>
       <r>    1.5998    0.0000 </r>
       <r>    1.7661    0.0000 </r>
       <r>    2.0622    0.0000 </r>
       <r>    2.2709    0.0000 </r>
       <r>    2.3439    0.0000 </r>
       <r>    2.3594    0.0000 </r>
       <r>    2.3835    0.0000 </r>
       <r>    2.3929    0.0000 </r>
       <r>    2.4657    0.0000 </r>
       <r>    2.4833    0.0000 </r>
       <r>    2.5935    0.0000 </r>
       <r>    2.6781    0.0000 </r>
       <r>    2.7179    0.0000 </r>
       <r>    2.7254    0.0000 </r>
       <r>    2.7343    0.0000 </r>
       <r>    2.7399    0.0000 </r>
       <r>    2.7712    0.0000 </r>
       <r>    2.7815    0.0000 </r>
       <r>    2.8970    0.0000 </r>
       <r>    3.0386    0.0000 </r>
       <r>    3.1616    0.0000 </r>
       <r>    3.2828    0.0000 </r>
       <r>    3.2836    0.0000 </r>
       <r>    3.2837    0.0000 </r>
       <r>    3.2842    0.0000 </r>
       <r>    3.3107    0.0000 </r>
       <r>    3.3111    0.0000 </r>
       <r>    3.3586    0.0000 </r>
       <r>    3.3639    0.0000 </r>
       <r>    3.3706    0.0000 </r>
       <r>    3.3742    0.0000 </r>
       <r>    3.3811    0.0000 </r>
       <r>    3.3981    0.0000 </r>
       <r>    3.4064    0.0000 </r>
       <r>    3.4544    0.0000 </r>
       <r>    3.4689    0.0000 </r>
       <r>    3.4766    0.0000 </r>
       <r>    3.4786    0.0000 </r>
       <r>    3.4842    0.0000 </r>
       <r>    3.4910    0.0000 </r>
       <r>    3.5042    0.0000 </r>
       <r>    3.5079    0.0000 </r>
       <r>    3.6268    0.0000 </r>
      </set>
      <set comment="kpoint 2">
       <r>  -22.8278    1.0000 </r>
       <r>  -22.4681    1.0000 </r>
       <r>  -22.0183    1.0000 </r>
       <r>  -21.6912    1.0000 </r>
       <r>  -21.6577    1.0000 </r>
       <r>  -21.6144    1.0000 </r>
       <r>  -21.3325    1.0000 </r>
       <r>  -21.1401    1.0000 </r>
       <r>  -21.0503    1.0000 </r>
       <r>  -20.9815    1.0000 </r>
       <r>  -20.7977    1.0000 </r>
       <r>  -20.6586    1.0000 </r>
       <r>  -20.5532    1.0000 </r>
       <r>  -19.8131    1.0000 </r>
       <r>  -19.3725    1.0000 </r>
       <r>  -19.3310    1.0000 </r>
       <r>  -19.0164    1.0000 </r>
       <r>  -18.7972    1.0000 </r>
       <r>  -18.5872    1.0000 </r>
       <r>  -18.5452    1.0000 </r>
       <r>  -18.2136    1.0000 </r>
       <r>  -18.1123    1.0000 </r>
       <r>  -18.0369    1.0000 </r>
       <r>  -17.9284    1.0000 </r>
       <r>  -17.8863    1.0000 </r>
       <r>  -17.7946    1.0000 </r>
       <r>  -17.6242    1.0000 </r>
       <r>  -17.5060    1.0000 </r>
       <r>  -17.3967    1.0000 </r>
       <r>  -17.2394    1.0000 </r>
       <r>  -16.9361    1.0000 </r>
       <r>  -16.4393    1.0000 </r>
       <r>  -16.0239    1.0000 </r>
       <r>  -15.9622    1.0000 </r>
       <r>  -15.7906    1.0000 </r>
       <r>  -15.6883    1.0000 </r>
       <r>  -15.4623    1.0000 </r>
       <r>  -14.7632    1.0000 </r>
       <r>  -14.7313    1.0000 </r>
       <r>  -14.5028    1.0000 </r>
       <r>  -14.3555    1.0000 </r>
       <r>  -14.2545    1.0000 </r>
       <r>  -14.0583    1.0000 </r>
       <r>  -13.9824    1.0000 </r>
       <r>  -13.6564    1.0000 </r>
       <r>  -13.2519    1.0000 </r>
       <r>  -13.0540    1.0000 </r>
       <r>  -13.0061    1.0000 </r>
       <r>  -12.7572    1.0000 </r>
       <r>  -12.6476    1.0000 </r>
       <r>  -12.5740    1.0000 </r>
       <r>  -12.5047    1.0000 </r>
       <r>  -12.2175    1.0000 </r>
       <r>  -12.0811    1.0000 </r>
       <r>  -11.9165    1.0000 </r>
       <r>  -11.7988    1.0000 </r>
       <r>  -11.7369    1.0000 </r>
       <r>  -11.6381    1.0000 </r>
       <r>  -11.5718    1.0000 </r>
       <r>  -11.4973    1.0000 </r>
       <r>  -11.3837    1.0000 </r>
       <r>  -11.3484    1.0000 </r>
       <r>  -11.1804    1.0000 </r>
       <r>  -11.1032    1.0000 </r>
       <r>  -10.9862    1.0000 </r>
       <r>  -10.8542    1.0000 </r>
       <r>  -10.7419    1.0000 </r>
       <r>  -10.6874    1.0000 </r>
       <r>  -10.3871    1.0000 </r>
       <r>  -10.2199    1.0000 </r>
       <r>  -10.1584    1.0000 </r>
       <r>  -10.0472    1.0000 </r>
       <r>   -9.9787    1.0000 </r>
       <r>   -9.9595    1.0000 </r>
       <r>   -9.8884    1.0000 </r>
       <r>   -9.7775    1.0000 </r>
       <r>   -9.7692    1.0000 </r>
       <r>   -9.6538    1.0000 </r>
       <r>   -9.5838    1.0000 </r>
       <r>   -9.4755    1.0000 </r>
       <r>   -9.3372    1.0000 </r>
       <r>   -9.2402    1.0000 </r>
       <r>   -9.1548    1.0000 </r>
       <r>   -9.0946    1.0000 </r>
       <r>   -9.0489    1.0000 </r>
       <r>   -9.0238    1.0000 </r>
       <r>   -8.9578    1.0000 </r>
       <r>   -8.7764    1.0000 </r>
       <r>   -8.7486    1.0000 </r>
       <r>   -8.7029    1.0000 </r>
       <r>   -8.6133    1.0000 </r>
       <r>   -8.4906    1.0000 </r>
       <r>   -8.4101    1.0000 </r>
       <r>   -8.3274    1.0000 </r>
       <r>   -8.2989    1.0000 </r>
       <r>   -8.2225    1.0000 </r>
       <r>   -8.0934    1.0000 </r>
       <r>   -7.9289    1.0000 </r>
       <r>   -7.8158    1.0000 </r>
       <r>   -7.7530    1.0000 </r>
       <r>   -7.7291    1.0000 </r>
       <r>   -7.1874    1.0000 </r>
       <r>   -7.0304    1.0000 </r>
       <r>   -6.9706    1.0000 </r>
       <r>   -6.8301    1.0000 </r>
       <r>   -6.7579    1.0000 </r>
       <r>   -6.6298    1.0000 </r>
       <r>   -6.5948    1.0000 </r>
       <r>   -6.3447    1.0000 </r>
       <r>   -6.1728    1.0000 </r>
       <r>   -6.0611    1.0000 </r>
       <r>   -5.9873    1.0000 </r>
       <r>   -5.9541    1.0000 </r>
       <r>   -5.8116    1.0000 </r>
       <r>   -5.5700    1.0000 </r>
       <r>   -5.4425    1.0000 </r>
       <r>   -5.3270    1.0000 </r>
       <r>   -5.2716    1.0000 </r>
       <r>   -5.1722    1.0000 </r>
       <r>   -5.0458    1.0000 </r>
       <r>   -4.7255    1.0000 </r>
       <r>   -4.4878    1.0000 </r>
       <r>   -4.3483    1.0000 </r>
       <r>   -4.1527    1.0000 </r>
       <r>   -2.9267    0.0000 </r>
       <r>   -2.5206    0.0000 </r>
       <r>   -2.0940    0.0000 </r>
       <r>   -2.0185    0.0000 </r>
       <r>   -1.8447    0.0000 </r>
       <r>   -1.4336    0.0000 </r>
       <r>   -1.3601    0.0000 </r>
       <r>   -1.3305    0.0000 </r>
       <r>   -1.1119    0.0000 </r>
       <r>   -0.9735    0.0000 </r>
       <r>   -0.8680    0.0000 </r>
       <r>   -0.7788    0.0000 </r>
       <r>   -0.6709    0.0000 </r>
       <r>   -0.5964    0.0000 </r>
       <r>   -0.1041    0.0000 </r>
       <r>   -0.0036    0.0000 </r>
       <r>    0.2359    0.0000 </r>
       <r>    0.4369    0.0000 </r>
       <r>    0.5089    0.0000 </r>
       <r>    0.8134    0.0000 </r>
       <r>    1.0151    0.0000 </r>
       <r>    1.2043    0.0000 </r>
       <r>    1.2882    0.0000 </r>
       <r>    1.3795    0.0000 </r>
       <r>    1.4857    0.0000 </r>
       <r>    1.6818    0.0000 </r>
       <r>    1.7103    0.0000 </r>
       <r>    1.8492    0.0000 </r>
       <r>    2.0267    0.0000 </r>
       <r>    2.1117    0.0000 </r>
       <r>    2.1387    0.0000 </r>
       <r>    2.1487    0.0000 </r>
       <r>    2.1955    0.0000 </r>
       <r>    2.3544    0.0000 </r>
       <r>    2.3798    0.0000 </r>
       <r>    2.4484    0.0000 </r>
       <r>    2.4893    0.0000 </r>
       <r>    2.5356    0.0000 </r>
       <r>    2.6237    0.0000 </r>
       <r>    2.6554    0.0000 </r>
       <r>    2.7317    0.0000 </r>
       <r>    2.7823    0.0000 </r>
       <r>    2.9081    0.0000 </r>
       <r>    2.9256    0.0000 </r>
       <r>    2.9296    0.0000 </r>
       <r>    2.9563    0.0000 </r>
       <r>    2.9726    0.0000 </r>
       <r>    2.9770    0.0000 </r>
       <r>    3.0460    0.0000 </r>
       <r>    3.0590    0.0000 </r>
       <r>    3.0661    0.0000 </r>
       <r>    3.1073    0.0000 </r>
       <r>    3.1112    0.0000 </r>
       <r>    3.1580    0.0000 </r>
       <r>    3.1684    0.0000 </r>
       <r>    3.2165    0.0000 </r>
       <r>    3.2733    0.0000 </r>
       <r>    3.3336    0.0000 </r>
       <r>    3.3445    0.0000 </r>
       <r>    3.3603    0.0000 </r>
       <r>    3.3889    0.0000 </r>
       <r>    3.4868    0.0000 </r>
       <r>    3.5167    0.0000 </r>
       <r>    3.5274    0.0000 </r>
       <r>    3.5487    0.0000 </r>
       <r>    3.5977    0.0000 </r>
       <r>    3.6554    0.0000 </r>
       <r>    3.7063    0.0000 </r>
      </set>
      <set comment="kpoint 3">
       <r>  -22.6756    1.0000 </r>
       <r>  -22.3723    1.0000 </r>
       <r>  -22.3102    1.0000 </r>
       <r>  -21.9721    1.0000 </r>
       <r>  -21.7802    1.0000 </r>
       <r>  -21.7595    1.0000 </r>
       <r>  -21.4207    1.0000 </r>
       <r>  -21.1417    1.0000 </r>
       <r>  -20.7026    1.0000 </r>
       <r>  -20.6254    1.0000 </r>
       <r>  -20.2617    1.0000 </r>
       <r>  -20.1880    1.0000 </r>
       <r>  -20.0975    1.0000 </r>
       <r>  -20.0152    1.0000 </r>
       <r>  -19.7951    1.0000 </r>
       <r>  -19.6315    1.0000 </r>
       <r>  -19.5314    1.0000 </r>
       <r>  -19.2021    1.0000 </r>
       <r>  -19.0907    1.0000 </r>
       <r>  -18.6253    1.0000 </r>
       <r>  -18.3789    1.0000 </r>
       <r>  -18.2776    1.0000 </r>
       <r>  -18.0839    1.0000 </r>
       <r>  -18.0523    1.0000 </r>
       <r>  -17.9942    1.0000 </r>
       <r>  -17.9700    1.0000 </r>
       <r>  -17.4096    1.0000 </r>
       <r>  -17.1134    1.0000 </r>
       <r>  -16.8162    1.0000 </r>
       <r>  -16.6751    1.0000 </r>
       <r>  -16.3864    1.0000 </r>
       <r>  -16.0999    1.0000 </r>
       <r>  -15.7213    1.0000 </r>
       <r>  -15.5905    1.0000 </r>
       <r>  -15.4595    1.0000 </r>
       <r>  -15.3940    1.0000 </r>
       <r>  -15.2636    1.0000 </r>
       <r>  -15.1868    1.0000 </r>
       <r>  -15.0625    1.0000 </r>
       <r>  -15.0031    1.0000 </r>
       <r>  -14.7964    1.0000 </r>
       <r>  -14.7042    1.0000 </r>
       <r>  -14.4578    1.0000 </r>
       <r>  -14.2165    1.0000 </r>
       <r>  -13.8639    1.0000 </r>
       <r>  -13.4137    1.0000 </r>
       <r>  -13.2375    1.0000 </r>
       <r>  -12.9933    1.0000 </r>
       <r>  -12.7503    1.0000 </r>
       <r>  -12.7337    1.0000 </r>
       <r>  -12.6474    1.0000 </r>
       <r>  -12.5735    1.0000 </r>
       <r>  -12.5192    1.0000 </r>
       <r>  -12.3623    1.0000 </r>
       <r>  -12.2202    1.0000 </r>
       <r>  -12.0517    1.0000 </r>
       <r>  -11.7799    1.0000 </r>
       <r>  -11.6955    1.0000 </r>
       <r>  -11.3085    1.0000 </r>
       <r>  -11.0887    1.0000 </r>
       <r>  -10.9216    1.0000 </r>
       <r>  -10.9000    1.0000 </r>
       <r>  -10.8904    1.0000 </r>
       <r>  -10.8411    1.0000 </r>
       <r>  -10.5849    1.0000 </r>
       <r>  -10.5618    1.0000 </r>
       <r>  -10.3867    1.0000 </r>
       <r>  -10.3304    1.0000 </r>
       <r>  -10.2704    1.0000 </r>
       <r>  -10.2078    1.0000 </r>
       <r>  -10.1841    1.0000 </r>
       <r>  -10.1367    1.0000 </r>
       <r>  -10.0768    1.0000 </r>
       <r>   -9.8959    1.0000 </r>
       <r>   -9.8244    1.0000 </r>
       <r>   -9.8077    1.0000 </r>
       <r>   -9.7186    1.0000 </r>
       <r>   -9.6808    1.0000 </r>
       <r>   -9.5662    1.0000 </r>
       <r>   -9.4610    1.0000 </r>
       <r>   -9.4031    1.0000 </r>
       <r>   -9.3950    1.0000 </r>
       <r>   -9.3518    1.0000 </r>
       <r>   -9.2658    1.0000 </r>
       <r>   -9.1627    1.0000 </r>
       <r>   -9.1093    1.0000 </r>
       <r>   -8.9001    1.0000 </r>
       <r>   -8.8243    1.0000 </r>
       <r>   -8.7588    1.0000 </r>
       <r>   -8.6769    1.0000 </r>
       <r>   -8.4946    1.0000 </r>
       <r>   -8.4149    1.0000 </r>
       <r>   -8.3582    1.0000 </r>
       <r>   -8.3278    1.0000 </r>
       <r>   -8.2281    1.0000 </r>
       <r>   -8.1413    1.0000 </r>
       <r>   -8.0056    1.0000 </r>
       <r>   -7.8384    1.0000 </r>
       <r>   -7.6377    1.0000 </r>
       <r>   -7.5400    1.0000 </r>
       <r>   -7.4428    1.0000 </r>
       <r>   -7.3663    1.0000 </r>
       <r>   -7.2803    1.0000 </r>
       <r>   -7.2531    1.0000 </r>
       <r>   -7.1274    1.0000 </r>
       <r>   -6.9435    1.0000 </r>
       <r>   -6.8971    1.0000 </r>
       <r>   -6.7294    1.0000 </r>
       <r>   -6.6717    1.0000 </r>
       <r>   -6.6346    1.0000 </r>
[...]
       <r>   -17.5521     4.2875    25.9137 </r>
       <r>   -17.4541     6.0740    26.4145 </r>
       <r>   -17.3561     5.0307    27.0753 </r>
       <r>   -17.2580     6.4477    27.5817 </r>
       <r>   -17.1600     3.8565    28.0373 </r>
       <r>   -17.0619     3.5968    28.3852 </r>
       <r>   -16.9639     3.9418    28.7484 </r>
       <r>   -16.8658     2.9672    29.2480 </r>
       <r>   -16.7678     3.5697    29.5658 </r>
       <r>   -16.6697     4.6781    29.9042 </r>
       <r>   -16.5717     3.3978    30.2870 </r>
       <r>   -16.4737     3.7497    30.6499 </r>
       <r>   -16.3756     3.4037    30.9643 </r>
       <r>   -16.2776     2.8614    31.2528 </r>
       <r>   -16.1795     3.4386    31.5555 </r>
       <r>   -16.0815     5.5618    31.9823 </r>
       <r>   -15.9834     3.3086    32.3102 </r>
       <r>   -15.8854     4.9666    32.8622 </r>
       <r>   -15.7874     6.1703    33.3677 </r>
       <r>   -15.6893     6.8127    34.1418 </r>
       <r>   -15.5913     7.0753    34.8465 </r>
       <r>   -15.4932     8.4632    35.5448 </r>
       <r>   -15.3952     6.1887    36.1706 </r>
       <r>   -15.2971     7.3353    36.8052 </r>
       <r>   -15.1991     4.4315    37.3921 </r>
       <r>   -15.1011     6.5022    37.7245 </r>
       <r>   -15.0030     3.7084    38.3066 </r>
       <r>   -14.9050     4.6232    38.7144 </r>
       <r>   -14.8069     5.7303    39.2438 </r>
       <r>   -14.7089     4.6672    39.7436 </r>
       <r>   -14.6108     5.8391    40.2664 </r>
       <r>   -14.5128     5.1367    40.8519 </r>
       <r>   -14.4147     4.2124    41.3436 </r>
       <r>   -14.3167     4.0272    41.8297 </r>
       <r>   -14.2187     4.9305    42.2710 </r>
       <r>   -14.1206     4.2030    42.8614 </r>
       <r>   -14.0226     3.7138    43.2391 </r>
       <r>   -13.9245     5.8378    43.8414 </r>
       <r>   -13.8265     3.9479    44.4728 </r>
       <r>   -13.7284     2.1638    44.7625 </r>
       <r>   -13.6304     0.0433    45.0007 </r>
       <r>   -13.5324     3.6689    45.2791 </r>
       <r>   -13.4343     5.5079    45.7732 </r>
       <r>   -13.3363     5.1717    46.2863 </r>
       <r>   -13.2382     6.1628    46.8313 </r>
       <r>   -13.1402     6.3122    47.4055 </r>
       <r>   -13.0421     7.8490    48.1956 </r>
       <r>   -12.9441     5.6478    48.8344 </r>
       <r>   -12.8461     6.6717    49.4654 </r>
       <r>   -12.7480     6.6078    50.1914 </r>
       <r>   -12.6500     8.2368    50.8567 </r>
       <r>   -12.5519     5.4596    51.4640 </r>
       <r>   -12.4539     4.9510    51.9974 </r>
       <r>   -12.3558     6.1568    52.5028 </r>
       <r>   -12.2578     4.0698    52.9203 </r>
       <r>   -12.1597     5.0717    53.4310 </r>
       <r>   -12.0617     4.9507    54.0317 </r>
       <r>   -11.9637     7.6098    54.7277 </r>
       <r>   -11.8656     6.1586    55.4352 </r>
       <r>   -11.7676     8.3215    56.0905 </r>
       <r>   -11.6695     7.5647    56.8446 </r>
       <r>   -11.5715    13.4096    57.6594 </r>
       <r>   -11.4734     5.8526    58.3467 </r>
       <r>   -11.3754     5.9203    58.9288 </r>
       <r>   -11.2774     2.9767    59.7735 </r>
       <r>   -11.1793     4.8487    60.2511 </r>
       <r>   -11.0813    12.6640    60.9839 </r>
       <r>   -10.9832    10.7550    61.7822 </r>
       <r>   -10.8852    11.2294    63.0060 </r>
       <r>   -10.7871     8.8730    64.4074 </r>
       <r>   -10.6891     9.4107    65.0700 </r>
       <r>   -10.5911     8.6822    66.2622 </r>
       <r>   -10.4930     8.9246    67.1272 </r>
       <r>   -10.3950    10.4360    67.8553 </r>
       <r>   -10.2969     9.5006    68.6659 </r>
       <r>   -10.1989    13.8003    69.7726 </r>
       <r>   -10.1008    11.1053    71.0880 </r>
       <r>   -10.0028    15.3528    72.4466 </r>
       <r>    -9.9047    15.2030    73.4723 </r>
       <r>    -9.8067    13.9267    75.2308 </r>
       <r>    -9.7087     8.7748    76.4481 </r>
       <r>    -9.6106     8.5758    77.8550 </r>
       <r>    -9.5126    13.8184    79.2054 </r>
       <r>    -9.4145    17.3701    80.6391 </r>
       <r>    -9.3165     8.9939    82.1364 </r>
       <r>    -9.2184    12.1040    83.0872 </r>
       <r>    -9.1204    12.7923    84.3677 </r>
       <r>    -9.0224    17.4125    85.8363 </r>
       <r>    -8.9243    11.7425    86.8070 </r>
       <r>    -8.8263    15.6845    87.9794 </r>
       <r>    -8.7282     9.0759    89.1069 </r>
       <r>    -8.6302    10.0034    90.1019 </r>
       <r>    -8.5321     9.1044    90.9686 </r>
       <r>    -8.4341     7.2018    91.8021 </r>
       <r>    -8.3361    11.6242    92.9486 </r>
       <r>    -8.2380    12.8183    94.1519 </r>
       <r>    -8.1400     9.0254    95.2097 </r>
       <r>    -8.0419     7.4222    95.9936 </r>
       <r>    -7.9439     4.9263    96.6140 </r>
       <r>    -7.8458     9.5826    97.3142 </r>
       <r>    -7.7478    15.6495    98.4648 </r>
       <r>    -7.6498    12.4843    99.5168 </r>
       <r>    -7.5517     4.4937   100.3372 </r>
       <r>    -7.4537     3.3604   100.9176 </r>
       <r>    -7.3556    14.6270   101.3976 </r>
       <r>    -7.2576    27.8710   102.2894 </r>
       <r>    -7.1595    11.5968   103.2387 </r>
       <r>    -7.0615     8.6009   104.1370 </r>
       <r>    -6.9634    10.8545   105.1247 </r>
       <r>    -6.8654     6.6547   106.0088 </r>
       <r>    -6.7674     8.2688   106.9222 </r>
       <r>    -6.6693    29.7876   107.9102 </r>
       <r>    -6.5713    10.3229   109.0132 </r>
       <r>    -6.4732     3.8502   109.5221 </r>
       <r>    -6.3752     3.8557   109.8998 </r>
       <r>    -6.2771     3.6730   110.3006 </r>
       <r>    -6.1791     4.4633   110.7464 </r>
       <r>    -6.0811     4.4132   111.3153 </r>
       <r>    -5.9830    10.3645   112.0520 </r>
       <r>    -5.8850     2.8823   113.0396 </r>
       <r>    -5.7869     3.5230   113.6863 </r>
       <r>    -5.6889     5.3556   114.3092 </r>
       <r>    -5.5908     6.2415   114.8343 </r>
       <r>    -5.4928    11.1562   115.5281 </r>
       <r>    -5.3948     4.7541   116.1960 </r>
       <r>    -5.2967     4.2864   116.8837 </r>
       <r>    -5.1987     4.2765   117.3755 </r>
       <r>    -5.1006     4.4891   117.8101 </r>
       <r>    -5.0026     8.4888   118.5372 </r>
       <r>    -4.9045     5.8361   119.0457 </r>
       <r>    -4.8065     4.6214   119.6358 </r>
       <r>    -4.7084     2.7740   120.1526 </r>
       <r>    -4.6104     2.7470   120.3771 </r>
       <r>    -4.5124     4.8822   120.7696 </r>
       <r>    -4.4143     6.7509   121.4100 </r>
       <r>    -4.3163     3.8206   121.8687 </r>
       <r>    -4.2182     3.8636   122.2282 </r>
       <r>    -4.1202     3.4252   122.6123 </r>
       <r>    -4.0221     1.8108   122.8814 </r>
       <r>    -3.9241     3.6957   123.1199 </r>
       <r>    -3.8261     1.0696   123.3830 </r>
       <r>    -3.7280     1.6094   123.5349 </r>
       <r>    -3.6300     1.9907   123.7024 </r>
       <r>    -3.5319     1.5036   123.8737 </r>
       <r>    -3.4339     0.4636   123.9952 </r>
       <r>    -3.3358     0.0000   124.0000 </r>
       <r>    -3.2378     0.0000   124.0000 </r>
       <r>    -3.1398     2.1788   124.0437 </r>
       <r>    -3.0417     4.5030   124.4476 </r>
       <r>    -2.9437     2.5138   124.8490 </r>
       <r>    -2.8456     0.0000   125.0000 </r>
       <r>    -2.7476     1.6971   125.0966 </r>
       <r>    -2.6495     1.9854   125.3157 </r>
       <r>    -2.5515     7.7939   125.7105 </r>
       <r>    -2.4534     4.8457   126.3886 </r>
       <r>    -2.3554     3.6796   126.7101 </r>
       <r>    -2.2574     3.0394   127.1128 </r>
       <r>    -2.1593     2.4356   127.3732 </r>
       <r>    -2.0613     7.5121   127.9119 </r>
       <r>    -1.9632     5.0328   128.4082 </r>
       <r>    -1.8652     4.9333   128.9692 </r>
       <r>    -1.7671     4.8812   129.4574 </r>
       <r>    -1.6691     1.1123   129.6481 </r>
       <r>    -1.5711     3.1728   130.3007 </r>
       <r>    -1.4730     4.7587   130.7174 </r>
       <r>    -1.3750    11.3453   131.3464 </r>
       <r>    -1.2769     4.8398   132.0995 </r>
       <r>    -1.1789     4.9059   132.6375 </r>
       <r>    -1.0808     3.2042   133.2095 </r>
       <r>    -0.9828     8.4099   133.6335 </r>
       <r>    -0.8848     7.6058   134.2693 </r>
       <r>    -0.7867     6.8743   134.9034 </r>
       <r>    -0.6887     3.3650   135.3782 </r>
       <r>    -0.5906     5.8913   135.8280 </r>
       <r>    -0.4926     5.7525   136.3800 </r>
       <r>    -0.3945     4.5511   136.8547 </r>
       <r>    -0.2965     4.3687   137.3418 </r>
       <r>    -0.1985     2.7428   137.7228 </r>
       <r>    -0.1004     3.7124   138.0319 </r>
       <r>    -0.0024     4.0770   138.4141 </r>
       <r>     0.0957     7.1903   138.8914 </r>
       <r>     0.1937     4.4481   139.4883 </r>
       <r>     0.2918     3.9146   139.7970 </r>
       <r>     0.3898     2.0496   140.2523 </r>
       <r>     0.4879     5.4531   140.5619 </r>
       <r>     0.5859     7.3293   141.1024 </r>
       <r>     0.6839     7.4044   141.7754 </r>
       <r>     0.7820     6.7944   142.6216 </r>
       <r>     0.8800     3.2051   143.1550 </r>
       <r>     0.9781     8.4379   143.7144 </r>
       <r>     1.0761     4.7121   144.5411 </r>
       <r>     1.1742     8.7344   145.1933 </r>
       <r>     1.2722     2.6662   146.0035 </r>
       <r>     1.3702     7.6341   146.7918 </r>
       <r>     1.4683    14.7143   148.1206 </r>
       <r>     1.5663    10.1878   149.2271 </r>
       <r>     1.6644    12.8885   150.2450 </r>
       <r>     1.7624    12.7760   151.6293 </r>
       <r>     1.8605    17.5405   152.9902 </r>
       <r>     1.9585     9.5423   154.6620 </r>
       <r>     2.0565    12.3894   156.2878 </r>
       <r>     2.1546    17.5099   157.5341 </r>
       <r>     2.2526    19.5439   159.4196 </r>
       <r>     2.3507    34.5478   161.4722 </r>
       <r>     2.4487    17.1214   163.5944 </r>
       <r>     2.5468    11.1840   164.9881 </r>
       <r>     2.6448    16.6208   166.4838 </r>
       <r>     2.7429    19.6055   168.3956 </r>
       <r>     2.8409    31.6847   170.2993 </r>
       <r>     2.9389    23.8907   172.8281 </r>
       <r>     3.0370    25.9872   175.2908 </r>
       <r>     3.1350    10.3305   177.3239 </r>
       <r>     3.2331    26.1322   179.5432 </r>
       <r>     3.3311     5.9136   180.9388 </r>
       <r>     3.4292    12.8060   183.2819 </r>
       <r>     3.5272    24.1254   185.5290 </r>
       <r>     3.6252    14.1520   187.7763 </r>
       <r>     3.7233    16.1985   190.3055 </r>
       <r>     3.8213     8.2933   191.6891 </r>
       <r>     3.9194     0.0000   192.0000 </r>
       <r>     4.0174     0.0000   192.0000 </r>
       <r>     4.1155     0.0000   192.0000 </r>
       <r>     4.2135     0.0000   192.0000 </r>
       <r>     4.3115     0.0000   192.0000 </r>
       <r>     4.4096     0.0000   192.0000 </r>
       <r>     4.5076     0.0000   192.0000 </r>
       <r>     4.6057     0.0000   192.0000 </r>
       <r>     4.7037     0.0000   192.0000 </r>
       <r>     4.8018     0.0000   192.0000 </r>
       <r>     4.8998     0.0000   192.0000 </r>
       <r>     4.9979     0.0000   192.0000 </r>
       <r>     5.0959     0.0000   192.0000 </r>
       <r>     5.1939     0.0000   192.0000 </r>
      </set>
     </set>
    </array>
   </total>
  </dos>
 </calculation>
 <structure name="finalpos" >
  <crystal>
   <varray name="basis" >
    <v>       9.77793745      -0.04025818       0.02897554 </v>
    <v>       4.86069124       8.48556873       0.02941921 </v>
    <v>       0.14859692       0.08830162      49.73165690 </v>
   </varray>
   <i name="volume">   4135.98516310 </i>
   <varray name="rec_basis" >
    <v>       0.10203102      -0.05844457      -0.00020109 </v>
    <v>       0.00048469       0.11757023      -0.00021020 </v>
    <v>      -0.00005973      -0.00003550       0.02010816 </v>
   </varray>
  </crystal>
  <varray name="positions" >
   <v>       0.99482403       0.99485387       0.38526325 </v>
   <v>       0.07804682       0.07816236       0.38598079 </v>
   <v>       0.08929337       0.08926390       0.45405424 </v>
   <v>       0.17346125       0.17341878       0.45424891 </v>
   <v>       0.99455985       0.24451806       0.38644784 </v>
   <v>       0.07889253       0.32822877       0.38666152 </v>
   <v>       0.09022351       0.33967811       0.45372557 </v>
   <v>       0.17635471       0.42359887       0.45134126 </v>
   <v>       0.99440620       0.49447934       0.38650914 </v>
   <v>       0.07917357       0.57773260       0.38834391 </v>
   <v>       0.08782385       0.59153303       0.45057756 </v>
   <v>       0.16841673       0.67622262       0.44723305 </v>
   <v>       0.99351979       0.74466110       0.38715126 </v>
   <v>       0.07729393       0.82817252       0.38720720 </v>
   <v>       0.08848264       0.83925859       0.45277420 </v>
   <v>       0.17192441       0.92309319       0.45283917 </v>
   <v>       0.24444477       0.99466823       0.38642874 </v>
   <v>       0.32815800       0.07897708       0.38665332 </v>
   <v>       0.33976303       0.09010300       0.45374233 </v>
   <v>       0.42369547       0.17617905       0.45136911 </v>
   <v>       0.24599994       0.24603481       0.38806952 </v>
   <v>       0.32918961       0.32918644       0.39356932 </v>
   <v>       0.34053457       0.34029216       0.45034490 </v>
   <v>       0.24287889       0.49672315       0.39500280 </v>
   <v>       0.30884664       0.59154704       0.40482701 </v>
   <v>       0.32500446       0.60803794       0.43510178 </v>
   <v>       0.41984261       0.67383096       0.44495936 </v>
   <v>       0.24039131       0.74823499       0.39271341 </v>
   <v>       0.32495629       0.82892698       0.38937890 </v>
   <v>       0.33887491       0.83743933       0.45164764 </v>
   <v>       0.42215525       0.92213146       0.45350391 </v>
   <v>       0.49445059       0.99443107       0.38649662 </v>
   <v>       0.57773184       0.07912459       0.38835160 </v>
   <v>       0.59164824       0.08763797       0.45062145 </v>
   <v>       0.67621555       0.16832814       0.44728564 </v>
   <v>       0.49676315       0.24273321       0.39503921 </v>
   <v>       0.59160074       0.30852651       0.40489675 </v>
   <v>       0.60776067       0.32501577       0.43517146 </v>
   <v>       0.67372825       0.41984016       0.44499574 </v>
   <v>       0.57607107       0.57627069       0.38965480 </v>
   <v>       0.58741625       0.58737787       0.44642973 </v>
   <v>       0.67060607       0.67052806       0.45193110 </v>
   <v>       0.49291043       0.74038474       0.38863125 </v>
   <v>       0.57684354       0.82646061       0.38625857 </v>
   <v>       0.58844647       0.83758763       0.45334796 </v>
   <v>       0.67216226       0.92189474       0.45357293 </v>
   <v>       0.74468011       0.99347055       0.38715996 </v>
   <v>       0.82812416       0.07730515       0.38722484 </v>
   <v>       0.83931174       0.08839210       0.45279189 </v>
   <v>       0.92308535       0.17190253       0.45284789 </v>
   <v>       0.74818803       0.24034172       0.39276597 </v>
   <v>       0.82878291       0.32502988       0.38942288 </v>
   <v>       0.83743274       0.33883118       0.45165540 </v>
   <v>       0.92219824       0.42208494       0.45349160 </v>
   <v>       0.74024940       0.49296619       0.38865925 </v>
   <v>       0.82638341       0.57688455       0.38627552 </v>
   <v>       0.83771306       0.58833453       0.45333991 </v>
   <v>       0.92204553       0.67204623       0.45355394 </v>
   <v>       0.74314277       0.74314573       0.38575190 </v>
   <v>       0.82731425       0.82729983       0.38594564 </v>
   <v>       0.83855794       0.83840193       0.45402084 </v>
   <v>       0.92178190       0.92170977       0.45473682 </v>
  </varray>
  <varray name="velocities" >
   <v>       0.00000000       0.00000000       0.00000000 </v>
   <v>       0.00000000       0.00000000       0.00000000 </v>
   <v>       0.00000000       0.00000000       0.00000000 </v>
   <v>       0.00000000       0.00000000       0.00000000 </v>
   <v>       0.00000000       0.00000000       0.00000000 </v>
   <v>       0.00000000       0.00000000       0.00000000 </v>
   <v>       0.00000000       0.00000000       0.00000000 </v>
   <v>       0.00000000       0.00000000       0.00000000 </v>
   <v>       0.00000000       0.00000000       0.00000000 </v>
   <v>       0.00000000       0.00000000       0.00000000 </v>
   <v>       0.00000000       0.00000000       0.00000000 </v>
   <v>       0.00000000       0.00000000       0.00000000 </v>
   <v>       0.00000000       0.00000000       0.00000000 </v>
   <v>       0.00000000       0.00000000       0.00000000 </v>
   <v>       0.00000000       0.00000000       0.00000000 </v>
   <v>       0.00000000       0.00000000       0.00000000 </v>
   <v>       0.00000000       0.00000000       0.00000000 </v>
   <v>       0.00000000       0.00000000       0.00000000 </v>
   <v>       0.00000000       0.00000000       0.00000000 </v>
   <v>       0.00000000       0.00000000       0.00000000 </v>
   <v>       0.00000000       0.00000000       0.00000000 </v>
   <v>       0.00000000       0.00000000       0.00000000 </v>
   <v>       0.00000000       0.00000000       0.00000000 </v>
   <v>       0.00000000       0.00000000       0.00000000 </v>
   <v>       0.00000000       0.00000000       0.00000000 </v>
   <v>       0.00000000       0.00000000       0.00000000 </v>
   <v>       0.00000000       0.00000000       0.00000000 </v>
   <v>       0.00000000       0.00000000       0.00000000 </v>
   <v>       0.00000000       0.00000000       0.00000000 </v>
   <v>       0.00000000       0.00000000       0.00000000 </v>
   <v>       0.00000000       0.00000000       0.00000000 </v>
   <v>       0.00000000       0.00000000       0.00000000 </v>
   <v>       0.00000000       0.00000000       0.00000000 </v>
   <v>       0.00000000       0.00000000       0.00000000 </v>
   <v>       0.00000000       0.00000000       0.00000000 </v>
   <v>       0.00000000       0.00000000       0.00000000 </v>
   <v>       0.00000000       0.00000000       0.00000000 </v>
   <v>       0.00000000       0.00000000       0.00000000 </v>
   <v>       0.00000000       0.00000000       0.00000000 </v>
   <v>       0.00000000       0.00000000       0.00000000 </v>
   <v>       0.00000000       0.00000000       0.00000000 </v>
   <v>       0.00000000       0.00000000       0.00000000 </v>
   <v>       0.00000000       0.00000000       0.00000000 </v>
   <v>       0.00000000       0.00000000       0.00000000 </v>
   <v>       0.00000000       0.00000000       0.00000000 </v>
   <v>       0.00000000       0.00000000       0.00000000 </v>
   <v>       0.00000000       0.00000000       0.00000000 </v>
   <v>       0.00000000       0.00000000       0.00000000 </v>
   <v>       0.00000000       0.00000000       0.00000000 </v>
   <v>       0.00000000       0.00000000       0.00000000 </v>
   <v>       0.00000000       0.00000000       0.00000000 </v>
   <v>       0.00000000       0.00000000       0.00000000 </v>
   <v>       0.00000000       0.00000000       0.00000000 </v>
   <v>       0.00000000       0.00000000       0.00000000 </v>
   <v>       0.00000000       0.00000000       0.00000000 </v>
   <v>       0.00000000       0.00000000       0.00000000 </v>
   <v>       0.00000000       0.00000000       0.00000000 </v>
   <v>       0.00000000       0.00000000       0.00000000 </v>
   <v>       0.00000000       0.00000000       0.00000000 </v>
   <v>       0.00000000       0.00000000       0.00000000 </v>
   <v>       0.00000000       0.00000000       0.00000000 </v>
   <v>       0.00000000       0.00000000       0.00000000 </v>
  </varray>
 </structure>
</modeling>
