unknown system                          
           1
     9.777937   -0.040258    0.028976
     4.860691    8.485569    0.029419
     0.148597    0.088302   49.731657
   C 
  62
Direct configuration=     1
   0.99482403  0.99485387  0.38526325
   0.07804682  0.07816236  0.38598079
   0.08929337  0.08926390  0.45405424
   0.17346125  0.17341878  0.45424891
   0.99455985  0.24451806  0.38644784
   0.07889253  0.32822877  0.38666152
   0.09022351  0.33967811  0.45372557
   0.17635471  0.42359887  0.45134126
   0.99440620  0.49447934  0.38650914
   0.07917357  0.57773260  0.38834391
   0.08782385  0.59153303  0.45057756
   0.16841673  0.67622262  0.44723305
   0.99351979  0.74466110  0.38715126
   0.07729393  0.82817252  0.38720720
   0.08848264  0.83925859  0.45277420
   0.17192441  0.92309319  0.45283917
   0.24444477  0.99466823  0.38642874
   0.32815800  0.07897708  0.38665332
   0.33976303  0.09010300  0.45374233
   0.42369547  0.17617905  0.45136911
   0.24599994  0.24603481  0.38806952
   0.32918961  0.32918644  0.39356932
   0.34053457  0.34029216  0.45034490
   0.24287889  0.49672315  0.39500280
   0.30884664  0.59154704  0.40482701
   0.32500446  0.60803794  0.43510178
   0.41984261  0.67383096  0.44495936
   0.24039131  0.74823499  0.39271341
   0.32495629  0.82892698  0.38937890
   0.33887491  0.83743933  0.45164764
   0.42215525  0.92213146  0.45350391
   0.49445059  0.99443107  0.38649662
   0.57773184  0.07912459  0.38835160
   0.59164824  0.08763797  0.45062145
   0.67621555  0.16832814  0.44728564
   0.49676315  0.24273321  0.39503921
   0.59160074  0.30852651  0.40489675
   0.60776067  0.32501577  0.43517146
   0.67372825  0.41984016  0.44499574
   0.57607107  0.57627069  0.38965480
   0.58741625  0.58737787  0.44642973
   0.67060607  0.67052806  0.45193110
   0.49291043  0.74038474  0.38863125
   0.57684354  0.82646061  0.38625857
   0.58844647  0.83758763  0.45334796
   0.67216226  0.92189474  0.45357293
   0.74468011  0.99347055  0.38715996
   0.82812416  0.07730515  0.38722484
   0.83931174  0.08839210  0.45279189
   0.92308535  0.17190253  0.45284789
   0.74818803  0.24034172  0.39276597
   0.82878291  0.32502988  0.38942288
   0.83743274  0.33883118  0.45165540
   0.92219824  0.42208494  0.45349160
   0.74024940  0.49296619  0.38865925
   0.82638341  0.57688455  0.38627552
   0.83771306  0.58833453  0.45333991
   0.92204553  0.67204623  0.45355394
   0.74314277  0.74314573  0.38575190
   0.82731425  0.82729983  0.38594564
   0.83855794  0.83840193  0.45402084
   0.92178190  0.92170977  0.45473682
