  62  62   0   0
  0.6617927E+02  0.9832975E-09  0.9833045E-09  0.4995917E-08  0.5000000E-15
  1.000000000000000E-004
  CAR 
 unknown system                          
      5.32549295    -24.15438050  301     -3.49390253      1.00000000
    -24.154  0.0000E+00  0.0000E+00  0.0000E+00  0.0000E+00
    -24.056  0.0000E+00  0.0000E+00  0.0000E+00  0.0000E+00
    -23.958  0.0000E+00  0.0000E+00  0.0000E+00  0.0000E+00
    -23.860  0.0000E+00  0.0000E+00  0.0000E+00  0.0000E+00
    -23.761  0.0000E+00  0.0000E+00  0.0000E+00  0.0000E+00
    -23.663  0.0000E+00  0.0000E+00  0.0000E+00  0.0000E+00
    -23.565  0.0000E+00  0.0000E+00  0.0000E+00  0.0000E+00
    -23.467  0.0000E+00  0.0000E+00  0.0000E+00  0.0000E+00
    -23.368  0.0000E+00  0.0000E+00  0.0000E+00  0.0000E+00
    -23.270  0.0000E+00  0.0000E+00  0.0000E+00  0.0000E+00
    -23.172  0.0000E+00  0.0000E+00  0.0000E+00  0.0000E+00
    -23.073  0.0000E+00  0.0000E+00  0.0000E+00  0.0000E+00
    -22.975  0.0000E+00  0.0000E+00  0.0000E+00  0.0000E+00
    -22.877  0.0000E+00  0.0000E+00  0.0000E+00  0.0000E+00
    -22.779  0.3601E+01  0.3601E+01  0.7328E-01  0.7328E-01
    -22.680  0.2889E+01  0.2889E+01  0.3422E+00  0.3422E+00
    -22.582  0.7022E+01  0.7022E+01  0.7049E+00  0.7049E+00
    -22.484  0.4637E+01  0.4637E+01  0.1486E+01  0.1486E+01
    -22.386  0.3059E+01  0.3059E+01  0.1894E+01  0.1894E+01
    -22.287  0.4184E+01  0.4184E+01  0.2118E+01  0.2118E+01
    -22.189  0.3732E+01  0.3732E+01  0.2426E+01  0.2426E+01
    -22.091  0.4481E+01  0.4481E+01  0.2833E+01  0.2833E+01
    -21.993  0.4856E+01  0.4856E+01  0.3231E+01  0.3231E+01
    -21.894  0.4753E+01  0.4753E+01  0.3720E+01  0.3720E+01
    -21.796  0.4114E+01  0.4114E+01  0.4157E+01  0.4157E+01
    -21.698  0.6517E+01  0.6517E+01  0.4723E+01  0.4723E+01
    -21.599  0.5152E+01  0.5152E+01  0.5449E+01  0.5449E+01
    -21.501  0.2354E+01  0.2354E+01  0.5780E+01  0.5780E+01
    -21.403  0.2708E+01  0.2708E+01  0.6005E+01  0.6005E+01
    -21.305  0.5714E+01  0.5714E+01  0.6563E+01  0.6563E+01
    -21.206  0.5521E+01  0.5521E+01  0.7084E+01  0.7084E+01
    -21.108  0.3295E+01  0.3295E+01  0.7642E+01  0.7642E+01
    -21.010  0.4231E+01  0.4231E+01  0.7969E+01  0.7969E+01
    -20.912  0.3650E+01  0.3650E+01  0.8343E+01  0.8343E+01
    -20.813  0.4754E+01  0.4754E+01  0.8744E+01  0.8744E+01
    -20.715  0.5065E+01  0.5065E+01  0.9206E+01  0.9206E+01
    -20.617  0.5319E+01  0.5319E+01  0.9720E+01  0.9720E+01
    -20.519  0.4823E+01  0.4823E+01  0.1028E+02  0.1028E+02
    -20.420  0.4460E+01  0.4460E+01  0.1072E+02  0.1072E+02
    -20.322  0.6007E+01  0.6007E+01  0.1123E+02  0.1123E+02
    -20.224  0.5522E+01  0.5522E+01  0.1182E+02  0.1182E+02
    -20.125  0.5690E+01  0.5690E+01  0.1232E+02  0.1232E+02
    -20.027  0.4998E+01  0.4998E+01  0.1280E+02  0.1280E+02
    -19.929  0.4821E+01  0.4821E+01  0.1318E+02  0.1318E+02
    -19.831  0.4537E+01  0.4537E+01  0.1374E+02  0.1374E+02
    -19.732  0.3620E+01  0.3620E+01  0.1408E+02  0.1408E+02
    -19.634  0.4462E+01  0.4462E+01  0.1455E+02  0.1455E+02
    -19.536  0.5258E+01  0.5258E+01  0.1504E+02  0.1504E+02
    -19.438  0.2968E+01  0.2968E+01  0.1548E+02  0.1548E+02
    -19.339  0.5145E+01  0.5145E+01  0.1605E+02  0.1605E+02
    -19.241  0.6538E+01  0.6538E+01  0.1669E+02  0.1669E+02
    -19.143  0.4799E+01  0.4799E+01  0.1711E+02  0.1711E+02
    -19.045  0.4113E+01  0.4113E+01  0.1755E+02  0.1755E+02
    -18.946  0.3791E+01  0.3791E+01  0.1792E+02  0.1792E+02
    -18.848  0.6913E+01  0.6913E+01  0.1842E+02  0.1842E+02
    -18.750  0.6007E+01  0.6007E+01  0.1904E+02  0.1904E+02
    -18.651  0.5250E+01  0.5250E+01  0.1959E+02  0.1959E+02
    -18.553  0.4410E+01  0.4410E+01  0.2006E+02  0.2006E+02
    -18.455  0.4938E+01  0.4938E+01  0.2052E+02  0.2052E+02
    -18.357  0.4882E+01  0.4882E+01  0.2100E+02  0.2100E+02
    -18.258  0.7296E+01  0.7296E+01  0.2153E+02  0.2153E+02
    -18.160  0.6376E+01  0.6376E+01  0.2212E+02  0.2212E+02
    -18.062  0.4921E+01  0.4921E+01  0.2271E+02  0.2271E+02
    -17.964  0.4559E+01  0.4559E+01  0.2337E+02  0.2337E+02
    -17.865  0.3596E+01  0.3596E+01  0.2379E+02  0.2379E+02
    -17.767  0.5903E+01  0.5903E+01  0.2423E+02  0.2423E+02
    -17.669  0.3986E+01  0.3986E+01  0.2469E+02  0.2469E+02
    -17.571  0.8930E+01  0.8930E+01  0.2520E+02  0.2520E+02
    -17.472  0.5209E+01  0.5209E+01  0.2575E+02  0.2575E+02
    -17.374  0.5022E+01  0.5022E+01  0.2632E+02  0.2632E+02
    -17.276  0.7362E+01  0.7362E+01  0.2695E+02  0.2695E+02
    -17.177  0.5279E+01  0.5279E+01  0.2755E+02  0.2755E+02
    -17.079  0.4285E+01  0.4285E+01  0.2802E+02  0.2802E+02
    -16.981  0.3627E+01  0.3627E+01  0.2841E+02  0.2841E+02
    -16.883  0.4668E+01  0.4668E+01  0.2884E+02  0.2884E+02
    -16.784  0.3879E+01  0.3879E+01  0.2924E+02  0.2924E+02
    -16.686  0.4497E+01  0.4497E+01  0.2968E+02  0.2968E+02
    -16.588  0.3566E+01  0.3566E+01  0.3014E+02  0.3014E+02
    -16.490  0.2499E+01  0.2499E+01  0.3054E+02  0.3054E+02
    -16.391  0.2645E+01  0.2645E+01  0.3079E+02  0.3079E+02
    -16.293  0.2917E+01  0.2917E+01  0.3106E+02  0.3106E+02
    -16.195  0.5850E+01  0.5850E+01  0.3152E+02  0.3152E+02
    -16.097  0.3038E+01  0.3038E+01  0.3188E+02  0.3188E+02
    -15.998  0.5586E+01  0.5586E+01  0.3226E+02  0.3226E+02
    -15.900  0.5607E+01  0.5607E+01  0.3283E+02  0.3283E+02
    -15.802  0.4245E+01  0.4245E+01  0.3327E+02  0.3327E+02
    -15.703  0.4876E+01  0.4876E+01  0.3371E+02  0.3371E+02
    -15.605  0.5656E+01  0.5656E+01  0.3422E+02  0.3422E+02
    -15.507  0.7782E+01  0.7782E+01  0.3485E+02  0.3485E+02
    -15.409  0.7773E+01  0.7773E+01  0.3570E+02  0.3570E+02
    -15.310  0.8918E+01  0.8918E+01  0.3646E+02  0.3646E+02
    -15.212  0.4607E+01  0.4607E+01  0.3706E+02  0.3706E+02
    -15.114  0.4014E+01  0.4014E+01  0.3750E+02  0.3750E+02
    -15.016  0.5731E+01  0.5731E+01  0.3802E+02  0.3802E+02
    -14.917  0.3226E+01  0.3226E+01  0.3846E+02  0.3846E+02
    -14.819  0.4438E+01  0.4438E+01  0.3882E+02  0.3882E+02
    -14.721  0.6482E+01  0.6482E+01  0.3943E+02  0.3943E+02
    -14.623  0.6112E+01  0.6112E+01  0.4004E+02  0.4004E+02
    -14.524  0.3675E+01  0.3675E+01  0.4042E+02  0.4042E+02
    -14.426  0.5284E+01  0.5284E+01  0.4098E+02  0.4098E+02
    -14.328  0.5619E+01  0.5619E+01  0.4149E+02  0.4149E+02
    -14.229  0.4023E+01  0.4023E+01  0.4196E+02  0.4196E+02
    -14.131  0.5226E+01  0.5226E+01  0.4237E+02  0.4237E+02
    -14.033  0.4920E+01  0.4920E+01  0.4290E+02  0.4290E+02
    -13.935  0.5034E+01  0.5034E+01  0.4336E+02  0.4336E+02
    -13.836  0.6980E+01  0.6980E+01  0.4384E+02  0.4384E+02
    -13.738  0.2641E+01  0.2641E+01  0.4444E+02  0.4444E+02
    -13.640  0.3111E+01  0.3111E+01  0.4470E+02  0.4470E+02
    -13.542  0.5613E+01  0.5613E+01  0.4518E+02  0.4518E+02
    -13.443  0.3614E+01  0.3614E+01  0.4574E+02  0.4574E+02
    -13.345  0.5281E+01  0.5281E+01  0.4613E+02  0.4613E+02
    -13.247  0.5705E+01  0.5705E+01  0.4670E+02  0.4670E+02
    -13.149  0.5868E+01  0.5868E+01  0.4725E+02  0.4725E+02
    -13.050  0.5822E+01  0.5822E+01  0.4787E+02  0.4787E+02
    -12.952  0.6800E+01  0.6800E+01  0.4843E+02  0.4843E+02
    -12.854  0.6208E+01  0.6208E+01  0.4908E+02  0.4908E+02
    -12.755  0.6629E+01  0.6629E+01  0.4971E+02  0.4971E+02
    -12.657  0.6553E+01  0.6553E+01  0.5040E+02  0.5040E+02
    -12.559  0.5215E+01  0.5215E+01  0.5098E+02  0.5098E+02
    -12.461  0.4975E+01  0.4975E+01  0.5149E+02  0.5149E+02
    -12.362  0.8195E+01  0.8195E+01  0.5197E+02  0.5197E+02
    -12.264  0.2458E+01  0.2458E+01  0.5259E+02  0.5259E+02
    -12.166  0.6002E+01  0.6002E+01  0.5286E+02  0.5286E+02
    -12.068  0.6053E+01  0.6053E+01  0.5334E+02  0.5334E+02
    -11.969  0.1360E+02  0.1360E+02  0.5427E+02  0.5427E+02
    -11.871  0.6343E+01  0.6343E+01  0.5500E+02  0.5500E+02
    -11.773  0.5656E+01  0.5656E+01  0.5551E+02  0.5551E+02
    -11.675  0.6081E+01  0.6081E+01  0.5615E+02  0.5615E+02
    -11.576  0.6080E+01  0.6080E+01  0.5676E+02  0.5676E+02
    -11.478  0.7366E+01  0.7366E+01  0.5743E+02  0.5743E+02
    -11.380  0.5538E+01  0.5538E+01  0.5812E+02  0.5812E+02
    -11.282  0.5807E+01  0.5807E+01  0.5869E+02  0.5869E+02
    -11.183  0.7741E+01  0.7741E+01  0.5943E+02  0.5943E+02
    -11.085  0.7358E+01  0.7358E+01  0.6014E+02  0.6014E+02
    -10.987  0.9746E+01  0.9746E+01  0.6119E+02  0.6119E+02
    -10.888  0.1054E+02  0.1054E+02  0.6222E+02  0.6222E+02
    -10.790  0.5706E+01  0.5706E+01  0.6328E+02  0.6328E+02
    -10.692  0.9481E+01  0.9481E+01  0.6401E+02  0.6401E+02
    -10.594  0.9660E+01  0.9660E+01  0.6505E+02  0.6505E+02
    -10.495  0.9264E+01  0.9264E+01  0.6595E+02  0.6595E+02
    -10.397  0.9640E+01  0.9640E+01  0.6694E+02  0.6694E+02
    -10.299  0.9920E+01  0.9920E+01  0.6796E+02  0.6796E+02
    -10.201  0.8916E+01  0.8916E+01  0.6868E+02  0.6868E+02
    -10.102  0.1372E+02  0.1372E+02  0.6993E+02  0.6993E+02
    -10.004  0.1449E+02  0.1449E+02  0.7131E+02  0.7131E+02
     -9.906  0.1089E+02  0.1089E+02  0.7235E+02  0.7235E+02
     -9.808  0.1838E+02  0.1838E+02  0.7333E+02  0.7333E+02
     -9.709  0.1064E+02  0.1064E+02  0.7449E+02  0.7449E+02
     -9.611  0.1683E+02  0.1683E+02  0.7592E+02  0.7592E+02
     -9.513  0.1351E+02  0.1351E+02  0.7734E+02  0.7734E+02
     -9.414  0.1714E+02  0.1714E+02  0.7867E+02  0.7867E+02
     -9.316  0.8360E+01  0.8360E+01  0.8004E+02  0.8004E+02
     -9.218  0.1283E+02  0.1283E+02  0.8110E+02  0.8110E+02
     -9.120  0.2523E+02  0.2523E+02  0.8270E+02  0.8270E+02
     -9.021  0.1161E+02  0.1161E+02  0.8427E+02  0.8427E+02
     -8.923  0.1078E+02  0.1078E+02  0.8534E+02  0.8534E+02
     -8.825  0.1602E+02  0.1602E+02  0.8659E+02  0.8659E+02
     -8.727  0.5252E+01  0.5252E+01  0.8783E+02  0.8783E+02
     -8.628  0.1035E+02  0.1035E+02  0.8884E+02  0.8884E+02
     -8.530  0.1012E+02  0.1012E+02  0.8989E+02  0.8989E+02
     -8.432  0.1062E+02  0.1062E+02  0.9124E+02  0.9124E+02
     -8.334  0.4148E+01  0.4148E+01  0.9241E+02  0.9241E+02
     -8.235  0.6361E+01  0.6361E+01  0.9308E+02  0.9308E+02
     -8.137  0.1387E+02  0.1387E+02  0.9426E+02  0.9426E+02
     -8.039  0.7348E+01  0.7348E+01  0.9529E+02  0.9529E+02
     -7.940  0.1147E+02  0.1147E+02  0.9625E+02  0.9625E+02
     -7.842  0.1037E+02  0.1037E+02  0.9747E+02  0.9747E+02
     -7.744  0.8501E+01  0.8501E+01  0.9853E+02  0.9853E+02
     -7.646  0.8694E+01  0.8694E+01  0.9954E+02  0.9954E+02
     -7.547  0.9369E+01  0.9369E+01  0.1005E+03  0.1005E+03
     -7.449  0.8086E+01  0.8086E+01  0.1012E+03  0.1012E+03
     -7.351  0.9991E+01  0.9991E+01  0.1020E+03  0.1020E+03
     -7.253  0.7062E+01  0.7062E+01  0.1030E+03  0.1030E+03
     -7.154  0.8805E+01  0.8805E+01  0.1036E+03  0.1036E+03
     -7.056  0.8107E+01  0.8107E+01  0.1046E+03  0.1046E+03
     -6.958  0.9278E+01  0.9278E+01  0.1055E+03  0.1055E+03
     -6.860  0.9194E+01  0.9194E+01  0.1066E+03  0.1066E+03
     -6.761  0.8608E+01  0.8608E+01  0.1074E+03  0.1074E+03
     -6.663  0.7908E+01  0.7908E+01  0.1083E+03  0.1083E+03
     -6.565  0.1203E+02  0.1203E+02  0.1093E+03  0.1093E+03
     -6.466  0.7547E+01  0.7547E+01  0.1102E+03  0.1102E+03
     -6.368  0.6748E+01  0.6748E+01  0.1109E+03  0.1109E+03
     -6.270  0.5019E+01  0.5019E+01  0.1115E+03  0.1115E+03
     -6.172  0.3747E+01  0.3747E+01  0.1120E+03  0.1120E+03
     -6.073  0.6179E+01  0.6179E+01  0.1124E+03  0.1124E+03
     -5.975  0.4842E+01  0.4842E+01  0.1129E+03  0.1129E+03
     -5.877  0.9766E+01  0.9766E+01  0.1136E+03  0.1136E+03
     -5.779  0.5782E+01  0.5782E+01  0.1144E+03  0.1144E+03
     -5.680  0.7000E+01  0.7000E+01  0.1151E+03  0.1151E+03
     -5.582  0.8598E+01  0.8598E+01  0.1158E+03  0.1158E+03
     -5.484  0.1062E+02  0.1062E+02  0.1164E+03  0.1164E+03
     -5.386  0.5494E+01  0.5494E+01  0.1172E+03  0.1172E+03
     -5.287  0.3819E+01  0.3819E+01  0.1177E+03  0.1177E+03
     -5.189  0.6200E+01  0.6200E+01  0.1182E+03  0.1182E+03
     -5.091  0.5331E+01  0.5331E+01  0.1187E+03  0.1187E+03
     -4.992  0.4094E+01  0.4094E+01  0.1191E+03  0.1191E+03
     -4.894  0.3531E+01  0.3531E+01  0.1195E+03  0.1195E+03
     -4.796  0.4446E+01  0.4446E+01  0.1199E+03  0.1199E+03
     -4.698  0.2704E+01  0.2704E+01  0.1205E+03  0.1205E+03
     -4.599  0.3902E+01  0.3902E+01  0.1208E+03  0.1208E+03
     -4.501  0.3893E+01  0.3893E+01  0.1212E+03  0.1212E+03
     -4.403  0.1979E+01  0.1979E+01  0.1215E+03  0.1215E+03
     -4.305  0.2213E+01  0.2213E+01  0.1217E+03  0.1217E+03
     -4.206  0.3721E+01  0.3721E+01  0.1220E+03  0.1220E+03
     -4.108  0.2594E+01  0.2594E+01  0.1224E+03  0.1224E+03
     -4.010  0.3815E+01  0.3815E+01  0.1228E+03  0.1228E+03
     -3.912  0.3737E+01  0.3737E+01  0.1232E+03  0.1232E+03
     -3.813  0.2853E+01  0.2853E+01  0.1235E+03  0.1235E+03
     -3.715  0.1834E+01  0.1834E+01  0.1237E+03  0.1237E+03
     -3.617  0.1318E+01  0.1318E+01  0.1239E+03  0.1239E+03
     -3.518  0.1719E+00  0.1719E+00  0.1240E+03  0.1240E+03
     -3.420  0.4688E-01  0.4688E-01  0.1240E+03  0.1240E+03
     -3.322  0.2322E+00  0.2322E+00  0.1240E+03  0.1240E+03
     -3.224  0.4176E+00  0.4176E+00  0.1240E+03  0.1240E+03
     -3.125  0.7995E+00  0.7995E+00  0.1241E+03  0.1241E+03
     -3.027  0.2090E+01  0.2090E+01  0.1242E+03  0.1242E+03
     -2.929  0.3185E+01  0.3185E+01  0.1246E+03  0.1246E+03
     -2.831  0.8341E+01  0.8341E+01  0.1251E+03  0.1251E+03
     -2.732  0.3412E+01  0.3412E+01  0.1254E+03  0.1254E+03
     -2.634  0.5629E+01  0.5629E+01  0.1259E+03  0.1259E+03
     -2.536  0.0000E+00  0.0000E+00  0.1260E+03  0.1260E+03
     -2.438  0.0000E+00  0.0000E+00  0.1260E+03  0.1260E+03
     -2.339  0.4155E+00  0.4155E+00  0.1260E+03  0.1260E+03
     -2.241  0.1146E+01  0.1146E+01  0.1261E+03  0.1261E+03
     -2.143  0.1976E+01  0.1976E+01  0.1262E+03  0.1262E+03
     -2.044  0.2175E+01  0.2175E+01  0.1264E+03  0.1264E+03
     -1.946  0.4115E+01  0.4115E+01  0.1267E+03  0.1267E+03
     -1.848  0.2179E+01  0.2179E+01  0.1270E+03  0.1270E+03
     -1.750  0.1793E+01  0.1793E+01  0.1272E+03  0.1272E+03
     -1.651  0.2390E+01  0.2390E+01  0.1274E+03  0.1274E+03
     -1.553  0.3327E+01  0.3327E+01  0.1277E+03  0.1277E+03
     -1.455  0.6058E+01  0.6058E+01  0.1282E+03  0.1282E+03
     -1.357  0.7978E+01  0.7978E+01  0.1288E+03  0.1288E+03
     -1.258  0.3652E+01  0.3652E+01  0.1294E+03  0.1294E+03
     -1.160  0.6701E+01  0.6701E+01  0.1300E+03  0.1300E+03
     -1.062  0.7775E+01  0.7775E+01  0.1307E+03  0.1307E+03
     -0.964  0.5734E+01  0.5734E+01  0.1316E+03  0.1316E+03
     -0.865  0.6745E+01  0.6745E+01  0.1321E+03  0.1321E+03
     -0.767  0.1002E+02  0.1002E+02  0.1327E+03  0.1327E+03
     -0.669  0.4433E+01  0.4433E+01  0.1335E+03  0.1335E+03
     -0.570  0.1550E+01  0.1550E+01  0.1340E+03  0.1340E+03
     -0.472  0.1741E+01  0.1741E+01  0.1341E+03  0.1341E+03
     -0.374  0.5342E+01  0.5342E+01  0.1345E+03  0.1345E+03
     -0.276  0.4192E+01  0.4192E+01  0.1350E+03  0.1350E+03
     -0.177  0.4246E+01  0.4246E+01  0.1354E+03  0.1354E+03
     -0.079  0.4126E+01  0.4126E+01  0.1358E+03  0.1358E+03
      0.019  0.4084E+01  0.4084E+01  0.1362E+03  0.1362E+03
      0.117  0.5859E+01  0.5860E+01  0.1367E+03  0.1367E+03
      0.216  0.5023E+01  0.5023E+01  0.1374E+03  0.1374E+03
      0.314  0.5719E+01  0.5720E+01  0.1382E+03  0.1382E+03
      0.412  0.8211E+01  0.8228E+01  0.1389E+03  0.1389E+03
      0.510  0.7382E+01  0.7379E+01  0.1397E+03  0.1397E+03
      0.609  0.1096E+02  0.1098E+02  0.1408E+03  0.1408E+03
      0.707  0.6715E+01  0.6752E+01  0.1417E+03  0.1417E+03
      0.805  0.7926E+01  0.7912E+01  0.1426E+03  0.1426E+03
      0.904  0.9052E+01  0.9037E+01  0.1434E+03  0.1434E+03
      1.002  0.5102E+01  0.5091E+01  0.1441E+03  0.1441E+03
      1.100  0.8417E+01  0.8511E+01  0.1448E+03  0.1448E+03
      1.198  0.7159E+01  0.6979E+01  0.1455E+03  0.1455E+03
      1.297  0.6836E+01  0.7030E+01  0.1462E+03  0.1462E+03
      1.395  0.1191E+02  0.1147E+02  0.1470E+03  0.1470E+03
      1.493  0.1704E+02  0.1604E+02  0.1486E+03  0.1486E+03
      1.591  0.1220E+02  0.1213E+02  0.1497E+03  0.1497E+03
      1.690  0.9132E+01  0.9157E+01  0.1511E+03  0.1511E+03
      1.788  0.1456E+02  0.1502E+02  0.1523E+03  0.1524E+03
      1.886  0.1276E+02  0.1274E+02  0.1540E+03  0.1541E+03
      1.984  0.2087E+02  0.2115E+02  0.1555E+03  0.1555E+03
      2.083  0.1080E+02  0.1057E+02  0.1571E+03  0.1571E+03
      2.181  0.1490E+02  0.1292E+02  0.1586E+03  0.1586E+03
      2.279  0.1556E+02  0.1516E+02  0.1598E+03  0.1598E+03
      2.378  0.1962E+02  0.1979E+02  0.1618E+03  0.1618E+03
      2.476  0.2400E+02  0.2478E+02  0.1639E+03  0.1640E+03
      2.574  0.1774E+02  0.1761E+02  0.1658E+03  0.1659E+03
      2.672  0.1709E+02  0.1705E+02  0.1675E+03  0.1675E+03
      2.771  0.1706E+02  0.1738E+02  0.1694E+03  0.1694E+03
      2.869  0.2701E+02  0.2738E+02  0.1717E+03  0.1717E+03
      2.967  0.1578E+02  0.1706E+02  0.1737E+03  0.1737E+03
      3.065  0.2430E+02  0.2436E+02  0.1759E+03  0.1759E+03
      3.164  0.1749E+02  0.1766E+02  0.1779E+03  0.1779E+03
      3.262  0.2211E+02  0.2221E+02  0.1801E+03  0.1801E+03
      3.360  0.2420E+02  0.2481E+02  0.1819E+03  0.1819E+03
      3.458  0.2676E+02  0.2633E+02  0.1846E+03  0.1846E+03
      3.557  0.2560E+02  0.2587E+02  0.1872E+03  0.1873E+03
      3.655  0.1701E+02  0.1810E+02  0.1895E+03  0.1896E+03
      3.753  0.1166E+02  0.1163E+02  0.1911E+03  0.1911E+03
      3.851  0.6501E+01  0.7163E+01  0.1918E+03  0.1918E+03
      3.950  0.6649E+00  0.7845E+00  0.1920E+03  0.1920E+03
      4.048  0.0000E+00  0.0000E+00  0.1920E+03  0.1920E+03
      4.146  0.0000E+00  0.0000E+00  0.1920E+03  0.1920E+03
      4.245  0.0000E+00  0.0000E+00  0.1920E+03  0.1920E+03
      4.343  0.0000E+00  0.0000E+00  0.1920E+03  0.1920E+03
      4.441  0.0000E+00  0.0000E+00  0.1920E+03  0.1920E+03
      4.539  0.0000E+00  0.0000E+00  0.1920E+03  0.1920E+03
      4.638  0.0000E+00  0.0000E+00  0.1920E+03  0.1920E+03
      4.736  0.0000E+00  0.0000E+00  0.1920E+03  0.1920E+03
      4.834  0.0000E+00  0.0000E+00  0.1920E+03  0.1920E+03
      4.932  0.0000E+00  0.0000E+00  0.1920E+03  0.1920E+03
      5.031  0.0000E+00  0.0000E+00  0.1920E+03  0.1920E+03
      5.129  0.0000E+00  0.0000E+00  0.1920E+03  0.1920E+03
      5.227  0.0000E+00  0.0000E+00  0.1920E+03  0.1920E+03
      5.325  0.0000E+00  0.0000E+00  0.1920E+03  0.1920E+03
