Automatically generated mesh
      20
Reciprocal lattice
    0.00000000000000    0.00000000000000    0.00000000000000             1
    0.16666666666667   -0.00000000000000   -0.00000000000000             2
    0.33333333333333   -0.00000000000000    0.00000000000000             2
    0.50000000000000   -0.00000000000000    0.00000000000000             1
    0.00000000000000    0.16666666666667   -0.00000000000000             2
    0.16666666666667    0.16666666666667   -0.00000000000000             2
    0.33333333333333    0.16666666666667   -0.00000000000000             2
    0.50000000000000    0.16666666666667    0.00000000000000             2
   -0.33333333333333    0.16666666666667   -0.00000000000000             2
   -0.16666666666667    0.16666666666667   -0.00000000000000             2
    0.00000000000000    0.33333333333333    0.00000000000000             2
    0.16666666666667    0.33333333333333    0.00000000000000             2
    0.33333333333333    0.33333333333333    0.00000000000000             2
    0.50000000000000    0.33333333333333    0.00000000000000             2
   -0.33333333333333    0.33333333333333    0.00000000000000             2
   -0.16666666666667    0.33333333333333    0.00000000000000             2
   -0.00000000000000    0.50000000000000    0.00000000000000             1
    0.16666666666667    0.50000000000000    0.00000000000000             2
    0.33333333333333    0.50000000000000   -0.00000000000000             2
    0.50000000000000    0.50000000000000   -0.00000000000000             1
Tetrahedra
       108    0.00462962962963
         2         1         1         2         6
         2         1         1         5         6
         2         1         5         5         6
         2         1         2         2         6
         2         1         2         6         6
         2         1         5         6         6
         2         2         2         3         7
         2         2         2         6         7
         2         2         6         6         7
         2         2         3         3         7
         2         2         3         7         7
         2         2         6         7         7
         2         3         3         4         8
         2         3         3         7         8
         2         3         7         7         8
         2         3         4         4         8
         2         3         4         8         8
         2         3         7         8         8
         2         3         4         4         9
         2         4         4         8         9
         2         4         8         8         9
         2         3         3         4         9
         2         3         4         9         9
         2         4         8         9         9
         2         2         3         3        10
         2         3         3         9        10
         2         3         9         9        10
         2         2         2         3        10
         2         2         3        10        10
         2         3         9        10        10
         2         1         2         2         5
         2         2         2         5        10
         2         2         5        10        10
         2         1         1         2         5
         2         1         2         5         5
         2         2         5         5        10
         2         5         5         6        12
         2         5         5        11        12
         2         5        11        11        12
         2         5         6         6        12
         2         5         6        12        12
         2         5        11        12        12
         2         6         6         7        13
         2         6         6        12        13
         2         6        12        12        13
         2         6         7         7        13
         2         6         7        13        13
         2         6        12        13        13
         2         7         7         8        14
         2         7         7        13        14
         2         7        13        13        14
         2         7         8         8        14
         2         7         8        14        14
         2         7        13        14        14
         2         8         8         9        15
         2         8         8        14        15
         2         8        14        14        15
         2         8         9         9        15
         2         8         9        15        15
         2         8        14        15        15
         2         9         9        10        16
         2         9         9        15        16
         2         9        15        15        16
         2         9        10        10        16
         2         9        10        16        16
         2         9        15        16        16
         2         5        10        10        11
         2        10        10        11        16
         2        10        11        16        16
         2         5         5        10        11
         2         5        10        11        11
         2        10        11        11        16
         2        11        11        12        18
         2        11        11        17        18
         2        11        17        17        18
         2        11        12        12        18
         2        11        12        18        18
         2        11        17        18        18
         2        12        12        13        19
         2        12        12        18        19
         2        12        18        18        19
         2        12        13        13        19
         2        12        13        19        19
         2        12        18        19        19
         2        13        13        14        20
         2        13        13        19        20
         2        13        19        19        20
         2        13        14        14        20
         2        13        14        20        20
         2        13        19        20        20
         2        14        14        15        19
         2        14        14        19        20
         2        14        19        20        20
         2        14        15        15        19
         2        14        15        19        19
         2        14        19        19        20
         2        15        15        16        18
         2        15        15        18        19
         2        15        18        19        19
         2        15        16        16        18
         2        15        16        18        18
         2        15        18        18        19
         2        11        16        16        17
         2        16        16        17        18
         2        16        17        18        18
         2        11        11        16        17
         2        11        16        17        17
         2        16        17        17        18
