       N       E                     dE             d eps       ncg     rms          rms(c)
DAV:   1     0.291012554299E+04    0.29101E+04   -0.10172E+05 16032   0.134E+03
DAV:   2     0.767968777160E+02   -0.28333E+04   -0.25901E+04 25368   0.250E+02
DAV:   3    -0.546729529273E+03   -0.62353E+03   -0.62083E+03 20232   0.122E+02
DAV:   4    -0.573325762360E+03   -0.26596E+02   -0.26456E+02 20112   0.326E+01
DAV:   5    -0.574027428171E+03   -0.70167E+00   -0.69955E+00 21864   0.483E+00    0.498E+01
DAV:   6    -0.398866802538E+03    0.17516E+03   -0.28215E+02 17412   0.310E+01    0.301E+01
DAV:   7    -0.413907240353E+03   -0.15040E+02   -0.32122E+01 18864   0.114E+01    0.208E+01
DAV:   8    -0.428537686427E+03   -0.14630E+02   -0.16832E+01 17880   0.840E+00    0.148E+01
DAV:   9    -0.448153234157E+03   -0.19616E+02   -0.50399E+00 17532   0.555E+00    0.126E+01
DAV:  10    -0.486022925198E+03   -0.37870E+02   -0.19449E+01 17088   0.926E+00    0.105E+01
DAV:  11    -0.513686367407E+03   -0.27663E+02   -0.15128E+01 17352   0.753E+00    0.901E+00
DAV:  12    -0.541068771533E+03   -0.27382E+02   -0.23045E+01 16776   0.812E+00    0.699E+00
DAV:  13    -0.550590677486E+03   -0.95219E+01   -0.10178E+01 17772   0.451E+00    0.614E+00
DAV:  14    -0.553957157985E+03   -0.33665E+01   -0.14703E+00 16488   0.225E+00    0.561E+00
DAV:  15    -0.555554552649E+03   -0.15974E+01   -0.46940E-01 16476   0.148E+00    0.512E+00
DAV:  16    -0.556700612497E+03   -0.11461E+01   -0.58418E-01 15960   0.150E+00    0.441E+00
DAV:  17    -0.558343427326E+03   -0.16428E+01   -0.85084E-01 16500   0.137E+00    0.350E+00
DAV:  18    -0.559530651742E+03   -0.11872E+01   -0.15675E-01 17088   0.812E-01    0.267E+00
DAV:  19    -0.558927452284E+03    0.60320E+00   -0.13047E-01 16116   0.904E-01    0.155E+00
DAV:  20    -0.559083543977E+03   -0.15609E+00   -0.47818E-02 16068   0.699E-01    0.943E-01
DAV:  21    -0.560070030521E+03   -0.98649E+00   -0.39279E-02 16824   0.626E-01    0.443E-01
DAV:  22    -0.560257768918E+03   -0.18774E+00   -0.13996E-02 16308   0.362E-01    0.210E-01
DAV:  23    -0.560284765274E+03   -0.26996E-01   -0.41277E-03 16128   0.206E-01    0.965E-02
DAV:  24    -0.560344366642E+03   -0.59601E-01   -0.15412E-03 15852   0.142E-01    0.550E-02
DAV:  25    -0.560359047999E+03   -0.14681E-01   -0.69262E-04 16284   0.983E-02    0.377E-02
DAV:  26    -0.560363738863E+03   -0.46909E-02   -0.43639E-04 15828   0.774E-02    0.241E-02
DAV:  27    -0.560366897862E+03   -0.31590E-02   -0.34692E-04 15828   0.662E-02    0.160E-02
DAV:  28    -0.560370824529E+03   -0.39267E-02   -0.20368E-04 16356   0.468E-02    0.965E-03
DAV:  29    -0.560373029626E+03   -0.22051E-02   -0.12015E-04 17436   0.326E-02    0.583E-03
DAV:  30    -0.560373627713E+03   -0.59809E-03   -0.18091E-05 16836   0.176E-02    0.349E-03
DAV:  31    -0.560373992579E+03   -0.36487E-03   -0.77699E-06 16452   0.971E-03    0.212E-03
DAV:  32    -0.560374203603E+03   -0.21102E-03   -0.39609E-06 16800   0.653E-03    0.154E-03
DAV:  33    -0.560374383422E+03   -0.17982E-03   -0.36881E-06 15072   0.411E-03    0.967E-04
DAV:  34    -0.560374472891E+03   -0.89469E-04   -0.16474E-06 14724   0.250E-03    0.587E-04
DAV:  35    -0.560374505753E+03   -0.32862E-04   -0.16218E-07 13884   0.136E-03    0.385E-04
DAV:  36    -0.560374521925E+03   -0.16172E-04   -0.43433E-08 11904   0.783E-04    0.223E-04
DAV:  37    -0.560374530722E+03   -0.87965E-05   -0.20428E-08 11952   0.438E-04    0.137E-04
DAV:  38    -0.560374535914E+03   -0.51921E-05   -0.10235E-08 11484   0.305E-04    0.938E-05
DAV:  39    -0.560374539146E+03   -0.32325E-05   -0.41443E-09 11472   0.237E-04    0.620E-05
DAV:  40    -0.560374541494E+03   -0.23475E-05   -0.24304E-09 11484   0.183E-04    0.417E-05
DAV:  41    -0.560374542494E+03   -0.10003E-05    0.21295E-09 11208   0.107E-04    0.288E-05
DAV:  42    -0.560374543133E+03   -0.63865E-06    0.30595E-09 11124   0.627E-05    0.152E-05
DAV:  43    -0.560374543448E+03   -0.31534E-06    0.34566E-09 11088   0.395E-05    0.881E-06
DAV:  44    -0.560374543540E+03   -0.91673E-07    0.38228E-09 11664   0.204E-05
   1 F= -.56741383E+03 E0= -.56741383E+03  d E =0.000000E+00  mag=    -0.0000
