 vasp.5.4.4.18Apr17-6-g9f103f2a35 (build Jan 12 2023 11:40:15) complex          
  
 executed on             LinuxIFC date 2024.01.13  00:39:03
 running on   48 total cores
 distrk:  each k-point on   48 cores,    1 groups
 distr:  one band on NCORES_PER_BAND=   8 cores,    6 groups


--------------------------------------------------------------------------------------------------------


 INCAR:
 POTCAR:    PAW_PBE C 08Apr2002                   
 POTCAR:    PAW_PBE C 08Apr2002                   
   SHA256 =  253f7b50bb8d59471dbedb8285d89021f4a42ed1a2c5d38a03a736e69125dd95 C/
   COPYR  = (c) Copyright 08Apr2002 Georg Kresse                                
   COPYR  = This file is part of the software VASP. Any use, copying, and all ot
   COPYR  = If you do not have a valid VASP license, you may not use, copy or di
   VRHFIN =C: s2p2                                                              
   LEXCH  = PE                                                                  
   EATOM  =   147.1560 eV,   10.8157 Ry                                         
                                                                                
   TITEL  = PAW_PBE C 08Apr2002                                                 
   LULTRA =        F    use ultrasoft PP ?                                      
   IUNSCR =        1    unscreen: 0-lin 1-nonlin 2-no                           
   RPACOR =    1.200    partial core radius                                     
   POMASS =   12.011; ZVAL   =    4.000    mass and valenz                      
   RCORE  =    1.500    outmost cutoff radius                                   
   RWIGS  =    1.630; RWIGS  =    0.863    wigner-seitz radius (au A)           
   ENMAX  =  400.000; ENMIN  =  300.000 eV                                      
   ICORE  =        2    local potential                                         
   LCOR   =        T    correct aug charges                                     
   LPAW   =        T    paw PP                                                  
   EAUG   =  644.873                                                            
   DEXC   =    0.000                                                            
   RMAX   =    1.529    core radius for proj-oper                               
   RAUG   =    1.300    factor for augmentation sphere                          
   RDEP   =    1.501    radius for radial grids                                 
   RDEPT  =    1.300    core radius for aug-charge                              
                                                                                
   Atomic configuration                                                         
    4 entries                                                                   
     n  l   j            E        occ.                                          
     1  0  0.50      -273.3789   2.0000                                         
     2  0  0.50       -13.7508   2.0000                                         
     2  1  0.50        -5.2854   2.0000                                         
     3  2  1.50        -5.4423   0.0000                                         
   Description                                                                  
     l       E           TYP  RCUT    TYP  RCUT                                 
     0    -13.7508458     23  1.200                                             
     0     -8.2022199     23  1.200                                             
     1     -5.2854383     23  1.500                                             
     1     34.0145650     23  1.500                                             
     2     -5.4423304      7  1.500                                             
  local pseudopotential read in
  partial core-charges read in
  partial kinetic energy density read in
  atomic valenz-charges read in
  non local Contribution for L=           0  read in
    real space projection operators read in
  non local Contribution for L=           0  read in
    real space projection operators read in
  non local Contribution for L=           1  read in
    real space projection operators read in
  non local Contribution for L=           1  read in
    real space projection operators read in
    PAW grid and wavefunctions read in
 
   number of l-projection  operators is LMAX  =           4
   number of lm-projection operators is LMMAX =           8
 

 ----------------------------------------------------------------------------- 
|                                                                             |
|  ADVICE TO THIS USER RUNNING 'VASP/VAMP'   (HEAR YOUR MASTER'S VOICE ...):  |
|                                                                             |
|      You have a (more or less) 'large supercell' and for larger cells       |
|      it might be more efficient to use real space projection opertators     |
|      So try LREAL= Auto  in the INCAR   file.                               |
|      Mind:          For very  accurate calculation you might also keep the  |
|      reciprocal projection scheme          (i.e. LREAL=.FALSE.)             |
|                                                                             |
 ----------------------------------------------------------------------------- 

  PAW_PBE C 08Apr2002                   :
 energy of atom  1       EATOM= -147.1560
 kinetic energy error for atom=    0.0012 (will be added to EATOM!!)
 
 
 POSCAR: POSCAR file written by OVITO Basic 3.7.1
  positions in direct lattice
  velocities in cartesian coordinates
 exchange correlation table for  LEXCH =        8
   RHO(1)=    0.500       N(1)  =     2000
   RHO(2)=  100.500       N(2)  =     4000
 


--------------------------------------------------------------------------------------------------------


 ion  position               nearest neighbor table
   1  0.995  0.995  0.383-   2 1.39  48 1.40  14 1.40
   2  0.076  0.076  0.383-   1 1.39  17 1.40   5 1.40
   3  0.081  0.081  0.453-   4 1.41  16 1.42  50 1.42
   4  0.162  0.162  0.450-   3 1.41  19 1.41   7 1.41
   5  0.004  0.242  0.383-   2 1.40  52 1.40   6 1.41
   6  0.111  0.297  0.385-   5 1.41   9 1.49  18 1.78
   7  0.080  0.331  0.450-  54 1.39   8 1.41   4 1.41
   8  0.161  0.411  0.445-  11 1.40   7 1.41  22 1.45
   9  0.023  0.475  0.387-  10 1.45   6 1.49  56 1.49
  10  0.094  0.572  0.389-  23 1.40  13 1.43   9 1.45
  11  0.094  0.573  0.451-   8 1.40  58 1.43  12 1.45
  12  0.192  0.643  0.453-  11 1.45  25 1.49  15 1.49
  13  0.002  0.742  0.385-  14 1.42  60 1.43  10 1.43
  14  0.082  0.827  0.384-  27 1.40   1 1.40  13 1.42
  15  0.093  0.822  0.454-  16 1.42  62 1.47  12 1.49
  16  0.169  0.911  0.454-  29 1.40  15 1.42   3 1.42
  17  0.242  0.004  0.383-   2 1.40  28 1.40  18 1.41
  18  0.297  0.111  0.385-  17 1.41  31 1.49   6 1.78
  19  0.331  0.080  0.450-  30 1.39  20 1.41   4 1.41
  20  0.411  0.161  0.445-  33 1.40  19 1.41  22 1.45
  21  0.351  0.351  0.408-  22 1.37  23 1.45  35 1.45
  22  0.315  0.315  0.432-  21 1.37  20 1.45   8 1.45
  23  0.255  0.505  0.395-  10 1.40  24 1.41  21 1.45
  24  0.336  0.587  0.390-  27 1.39  23 1.41  39 1.41
  25  0.370  0.556  0.455-  26 1.41  12 1.49  37 1.78
  26  0.424  0.663  0.457-  41 1.40  29 1.40  25 1.41
  27  0.250  0.751  0.385-  24 1.39  14 1.40  28 1.43
  28  0.331  0.836  0.384-  43 1.40  17 1.40  27 1.43
  29  0.336  0.831  0.456-  16 1.40  26 1.40  30 1.43
  30  0.417  0.915  0.455-  19 1.39  45 1.40  29 1.43
  31  0.475  0.023  0.387-  32 1.45  18 1.49  44 1.49
  32  0.573  0.093  0.389-  35 1.40  47 1.43  31 1.45
  33  0.573  0.094  0.451-  20 1.40  46 1.43  34 1.45
  34  0.643  0.192  0.453-  33 1.45  37 1.49  49 1.49
  35  0.506  0.255  0.395-  32 1.40  36 1.41  21 1.45
  36  0.587  0.336  0.390-  51 1.39  35 1.41  39 1.41
  37  0.556  0.370  0.455-  38 1.41  34 1.49  25 1.78
  38  0.663  0.424  0.457-  41 1.40  53 1.40  37 1.41
  39  0.505  0.505  0.390-  40 1.41  24 1.41  36 1.41
  40  0.586  0.586  0.387-  39 1.41  43 1.42  55 1.42
  41  0.590  0.590  0.457-  42 1.39  26 1.40  38 1.40
  42  0.671  0.671  0.457-  41 1.39  57 1.40  45 1.40
  43  0.498  0.756  0.386-  28 1.40  44 1.42  40 1.42
  44  0.573  0.845  0.386-  43 1.42  59 1.47  31 1.49
  45  0.584  0.839  0.456-  30 1.40  42 1.40  46 1.42
  46  0.664  0.924  0.455-  45 1.42  61 1.43  33 1.43
  47  0.743  0.002  0.385-  48 1.42  60 1.43  32 1.43
  48  0.828  0.082  0.384-  51 1.40   1 1.40  47 1.42
  49  0.822  0.093  0.454-  50 1.42  62 1.47  34 1.49
  50  0.911  0.169  0.454-  53 1.40  49 1.42   3 1.42
  51  0.751  0.249  0.385-  36 1.39  48 1.40  52 1.43
  52  0.836  0.331  0.384-  55 1.40   5 1.40  51 1.43
  53  0.831  0.336  0.456-  50 1.40  38 1.40  54 1.43
  54  0.915  0.417  0.455-   7 1.39  57 1.40  53 1.43
  55  0.756  0.498  0.386-  52 1.40  56 1.42  40 1.42
  56  0.845  0.573  0.386-  55 1.42  59 1.47   9 1.49
  57  0.839  0.584  0.456-  54 1.40  42 1.40  58 1.42
  58  0.924  0.665  0.455-  57 1.42  61 1.43  11 1.43
  59  0.750  0.750  0.386-  60 1.40  44 1.47  56 1.47
  60  0.831  0.831  0.385-  59 1.40  13 1.43  47 1.43
  61  0.835  0.835  0.455-  62 1.40  46 1.43  58 1.43
  62  0.917  0.917  0.454-  61 1.40  15 1.47  49 1.47
 

IMPORTANT INFORMATION: All symmetrisations will be switched off!
NOSYMM: (Re-)initialisation of all symmetry stuff for point group C_1.

 
 

Automatic generation of k-mesh.
 generate k-points for:    6    6    1
Space group operators:
 irot       det(A)        alpha          n_x          n_y          n_z        tau_x        tau_y        tau_z
    1     1.000000     0.000001     1.000000     0.000000     0.000000     0.000000     0.000000     0.000000
 
 Subroutine IBZKPT returns following result:
 ===========================================
 
 Found     20 irreducible k-points:
 
 Following reciprocal coordinates:
            Coordinates               Weight
  0.000000  0.000000  0.000000      1.000000
  0.166667 -0.000000 -0.000000      2.000000
  0.333333 -0.000000  0.000000      2.000000
  0.500000 -0.000000  0.000000      1.000000
  0.000000  0.166667 -0.000000      2.000000
  0.166667  0.166667 -0.000000      2.000000
  0.333333  0.166667 -0.000000      2.000000
  0.500000  0.166667  0.000000      2.000000
 -0.333333  0.166667 -0.000000      2.000000
 -0.166667  0.166667 -0.000000      2.000000
  0.000000  0.333333  0.000000      2.000000
  0.166667  0.333333  0.000000      2.000000
  0.333333  0.333333  0.000000      2.000000
  0.500000  0.333333  0.000000      2.000000
 -0.333333  0.333333  0.000000      2.000000
 -0.166667  0.333333  0.000000      2.000000
 -0.000000  0.500000  0.000000      1.000000
  0.166667  0.500000  0.000000      2.000000
  0.333333  0.500000 -0.000000      2.000000
  0.500000  0.500000 -0.000000      1.000000
 
 Following cartesian coordinates:
            Coordinates               Weight
  0.000000  0.000000  0.000000      1.000000
  0.017114 -0.010262  0.000013      2.000000
  0.034227 -0.020523  0.000026      2.000000
  0.051341 -0.030785  0.000039      1.000000
 -0.000314  0.019952  0.000016      2.000000
  0.016799  0.009690  0.000029      2.000000
  0.033913 -0.000571  0.000041      2.000000
  0.051026 -0.010833  0.000054      2.000000
 -0.034542  0.040475 -0.000010      2.000000
 -0.017428  0.030213  0.000003      2.000000
 -0.000629  0.039903  0.000032      2.000000
  0.016485  0.029642  0.000044      2.000000
  0.033598  0.019380  0.000057      2.000000
  0.050712  0.009119  0.000070      2.000000
 -0.034856  0.060426  0.000006      2.000000
 -0.017742  0.050165  0.000019      2.000000
 -0.000943  0.059855  0.000047      1.000000
  0.016171  0.049594  0.000060      2.000000
  0.033284  0.039332  0.000073      2.000000
  0.050398  0.029070  0.000086      1.000000
 
 TETIRR: Found    108 inequivalent tetrahedra from      216


--------------------------------------------------------------------------------------------------------




 Dimension of arrays:
   k-points           NKPTS =     20   k-points in BZ     NKDIM =     20   number of bands    NBANDS=    192
   number of dos      NEDOS =    301   number of ions     NIONS =     62
   non local maximal  LDIM  =      4   non local SUM 2l+1 LMDIM =      8
   total plane-waves  NPLWV = ******
   max r-space proj   IRMAX =      1   max aug-charges    IRDMAX=  12921
   dimension x,y,z NGX =    96 NGY =   96 NGZ =  480
   dimension x,y,z NGXF=   192 NGYF=  192 NGZF=  960
   support grid    NGXF=   192 NGYF=  192 NGZF=  960
   ions per type =              62
   NGX,Y,Z   is equivalent  to a cutoff of  16.23, 16.23, 15.97 a.u.
   NGXF,Y,Z  is equivalent  to a cutoff of  32.46, 32.46, 31.95 a.u.

 SYSTEM =  unknown system                          
 POSCAR =  POSCAR file written by OVITO Basic 3.7.1

 Startparameter for this run:
   NWRITE =      2    write-flag & timer
   PREC   = accura    normal or accurate (medium, high low for compatibility)
   ISTART =      0    job   : 0-new  1-cont  2-samecut
   ICHARG =      2    charge: 1-file 2-atom 10-const
   ISPIN  =      2    spin polarized calculation?
   LNONCOLLINEAR =      F non collinear calculations
   LSORBIT =      F    spin-orbit coupling
   INIWAV =      1    electr: 0-lowe 1-rand  2-diag
   LASPH  =      F    aspherical Exc in radial PAW
   METAGGA=      F    non-selfconsistent MetaGGA calc.

 Electronic Relaxation 1
   ENCUT  =  850.0 eV  62.47 Ry    7.90 a.u.  23.37 23.38118.76*2*pi/ulx,y,z
   ENINI  =  850.0     initial cutoff
   ENAUG  =  644.9 eV  augmentation charge cutoff
   NELM   =    150;   NELMIN=  2; NELMDL= -5     # of ELM steps 
   EDIFF  = 0.1E-06   stopping-criterion for ELM
   LREAL  =      F    real-space projection
   NLSPLINE    = F    spline interpolate recip. space projectors
   LCOMPAT=      F    compatible to vasp.4.4
   GGA_COMPAT  = T    GGA compatible to vasp.4.4-vasp.4.6
   LMAXPAW     = -100 max onsite density
   LMAXMIX     =    2 max onsite mixed and CHGCAR
   VOSKOWN=      0    Vosko Wilk Nusair interpolation
   ROPT   =    0.00000
 Ionic relaxation
   EDIFFG = 0.1E-05   stopping-criterion for IOM
   NSW    =      1    number of steps for IOM
   NBLOCK =      1;   KBLOCK =      1    inner block; outer block 
   IBRION =     -1    ionic relax: 0-MD 1-quasi-New 2-CG
   NFREE  =      0    steps in history (QN), initial steepest desc. (CG)
   ISIF   =      2    stress and relaxation
   IWAVPR =     10    prediction:  0-non 1-charg 2-wave 3-comb
   ISYM   =      0    0-nonsym 1-usesym 2-fastsym
   LCORR  =      T    Harris-Foulkes like correction to forces

   POTIM  = 0.5000    time-step for ionic-motion
   TEIN   =    0.0    initial temperature
   TEBEG  =    0.0;   TEEND  =   0.0 temperature during run
   SMASS  =  -3.00    Nose mass-parameter (am)
   estimated Nose-frequenzy (Omega)   =  0.10E-29 period in steps =****** mass=  -0.221E-26a.u.
   SCALEE = 1.0000    scale energy and forces
   NPACO  =    256;   APACO  = 16.0  distance and # of slots for P.C.
   PSTRESS=    0.0 pullay stress

  Mass of Ions in am
   POMASS =  12.01
  Ionic Valenz
   ZVAL   =   4.00
  Atomic Wigner-Seitz radii
   RWIGS  =  -1.00
  virtual crystal weights 
   VCA    =   1.00
   NELECT =     248.0000    total number of electrons
   NUPDOWN=      -1.0000    fix difference up-down

 DOS related values:
   EMIN   =  10.00;   EMAX   =-10.00  energy-range for DOS
   EFERMI =   0.00
   ISMEAR =    -5;   SIGMA  =   0.02  broadening in eV -4-tet -1-fermi 0-gaus

 Electronic relaxation 2 (details)
   IALGO  =     38    algorithm
   LDIAG  =      T    sub-space diagonalisation (order eigenvalues)
   LSUBROT=      F    optimize rotation matrix (better conditioning)
   TURBO    =      0    0=normal 1=particle mesh
   IRESTART =      0    0=no restart 2=restart with 2 vectors
   NREBOOT  =      0    no. of reboots
   NMIN     =      0    reboot dimension
   EREF     =   0.00    reference energy to select bands
   IMIX   =      4    mixing-type and parameters
     AMIX     =   0.40;   BMIX     =  1.00
     AMIX_MAG =   1.60;   BMIX_MAG =  1.00
     AMIN     =   0.10
     WC   =   100.;   INIMIX=   1;  MIXPRE=   1;  MAXMIX= -45

 Intra band minimization:
   WEIMIN = 0.0000     energy-eigenvalue tresh-hold
   EBREAK =  0.13E-09  absolut break condition
   DEPER  =   0.30     relativ break condition  

   TIME   =   0.40     timestep for ELM

  volume/ion in A,a.u.               =      66.18       446.60
  Fermi-wavevector in a.u.,A,eV,Ry     =   0.642472  1.214096  5.616080  0.412770
  Thomas-Fermi vector in A             =   1.709153
 
 Write flags
   LWAVE        =      F    write WAVECAR
   LDOWNSAMPLE  =      F    k-point downsampling of WAVECAR
   LCHARG       =      F    write CHGCAR
   LVTOT        =      F    write LOCPOT, total local potential
   LVHAR        =      F    write LOCPOT, Hartree potential only
   LELF         =      F    write electronic localiz. function (ELF)
   LORBIT       =      0    0 simple, 1 ext, 2 COOP (PROOUT), +10 PAW based schemes


 Dipole corrections
   LMONO  =      F    monopole corrections only (constant potential shift)
   LDIPOL =      F    correct potential (dipole corrections)
   IDIPOL =      0    1-x, 2-y, 3-z, 4-all directions 
   EPSILON=  1.0000000 bulk dielectric constant

 Exchange correlation treatment:
   GGA     =    --    GGA type
   LEXCH   =     8    internal setting for exchange type
   VOSKOWN=      0    Vosko Wilk Nusair interpolation
   LHFCALC =     F    Hartree Fock is set to
   LHFONE  =     F    Hartree Fock one center treatment
   AEXX    =    0.0000 exact exchange contribution

 Linear response parameters
   LEPSILON=     F    determine dielectric tensor
   LRPA    =     F    only Hartree local field effects (RPA)
   LNABLA  =     F    use nabla operator in PAW spheres
   LVEL    =     F    velocity operator in full k-point grid
   LINTERFAST=   F  fast interpolation
   KINTER  =     0    interpolate to denser k-point grid
   CSHIFT  =0.1000    complex shift for real part using Kramers Kronig
   OMEGAMAX=  -1.0    maximum frequency
   DEG_THRESHOLD= 0.2000000E-02 threshold for treating states as degnerate
   RTIME   =   -0.100 relaxation time in fs
  (WPLASMAI=    0.000 imaginary part of plasma frequency in eV, 0.658/RTIME)
   DFIELD  = 0.0000000 0.0000000 0.0000000 field for delta impulse in time
 
 Orbital magnetization related:
   ORBITALMAG=     F  switch on orbital magnetization
   LCHIMAG   =     F  perturbation theory with respect to B field
   DQ        =  0.001000  dq finite difference perturbation B field
   LLRAUG    =     F  two centre corrections for induced B field



--------------------------------------------------------------------------------------------------------


 Static calculation
 charge density and potential will be updated during run
 spin polarized calculation
 Variant of blocked Davidson
 Davidson routine will perform the subspace rotation
 perform sub-space diagonalisation
    after iterative eigenvector-optimisation
 modified Broyden-mixing scheme, WC =      100.0
 initial mixing is a Kerker type mixing with AMIX =  0.4000 and BMIX =      1.0000
 Hartree-type preconditioning will be used
 using additional bands           68
 reciprocal scheme for non local part
 use partial core corrections
 calculate Harris-corrections to forces 
   (improved forces if not selfconsistent)
 use gradient corrections 
 use of overlap-Matrix (Vanderbilt PP)
 Fermi weights with tetrahedron method with Bloechl corrections


--------------------------------------------------------------------------------------------------------


  energy-cutoff  :      850.00
  volume of cell :     4103.11
      direct lattice vectors                 reciprocal lattice vectors
     9.831746971  0.154921399 -0.012301623     0.102681583 -0.061569245  0.000077168
     5.056664567  8.433192708 -0.013099929    -0.001886186  0.119710184  0.000094558
    -0.061791620 -0.040435843 49.959113637     0.000024789  0.000016229  0.020016412

  length of vectors
     9.832975159  9.833044666 49.959168214     0.119725876  0.119725080  0.020016434


 
 k-points in units of 2pi/SCALE and weight: read from INCAR                         
   0.00000000  0.00000000  0.00000000       0.028
   0.01711360 -0.01026154  0.00001286       0.056
   0.03422719 -0.02052308  0.00002572       0.056
   0.05134079 -0.03078462  0.00003858       0.028
  -0.00031436  0.01995170  0.00001576       0.056
   0.01679923  0.00969016  0.00002862       0.056
   0.03391283 -0.00057138  0.00004148       0.056
   0.05102643 -0.01083293  0.00005434       0.056
  -0.03454156  0.04047478 -0.00000996       0.056
  -0.01742796  0.03021324  0.00000290       0.056
  -0.00062873  0.03990339  0.00003152       0.056
   0.01648487  0.02964185  0.00004438       0.056
   0.03359847  0.01938031  0.00005724       0.056
   0.05071206  0.00911877  0.00007010       0.056
  -0.03485592  0.06042648  0.00000580       0.056
  -0.01774233  0.05016494  0.00001866       0.056
  -0.00094309  0.05985509  0.00004728       0.028
   0.01617050  0.04959355  0.00006014       0.056
   0.03328410  0.03933201  0.00007300       0.056
   0.05039770  0.02907047  0.00008586       0.028
 
 k-points in reciprocal lattice and weights: read from INCAR                         
   0.00000000  0.00000000  0.00000000       0.028
   0.16666667 -0.00000000 -0.00000000       0.056
   0.33333333 -0.00000000  0.00000000       0.056
   0.50000000 -0.00000000  0.00000000       0.028
   0.00000000  0.16666667 -0.00000000       0.056
   0.16666667  0.16666667 -0.00000000       0.056
   0.33333333  0.16666667 -0.00000000       0.056
   0.50000000  0.16666667  0.00000000       0.056
  -0.33333333  0.16666667 -0.00000000       0.056
  -0.16666667  0.16666667 -0.00000000       0.056
   0.00000000  0.33333333  0.00000000       0.056
   0.16666667  0.33333333  0.00000000       0.056
   0.33333333  0.33333333  0.00000000       0.056
   0.50000000  0.33333333  0.00000000       0.056
  -0.33333333  0.33333333  0.00000000       0.056
  -0.16666667  0.33333333  0.00000000       0.056
  -0.00000000  0.50000000  0.00000000       0.028
   0.16666667  0.50000000  0.00000000       0.056
   0.33333333  0.50000000 -0.00000000       0.056
   0.50000000  0.50000000 -0.00000000       0.028
 
 position of ions in fractional coordinates (direct lattice) 
   0.99544674  0.99532884  0.38332420
   0.07621937  0.07609588  0.38281028
   0.08072663  0.08079999  0.45296520
   0.16194303  0.16201211  0.44984677
   0.00371592  0.24214890  0.38345710
   0.11073808  0.29697992  0.38496213
   0.07972366  0.33093164  0.44995755
   0.16103111  0.41120087  0.44515490
   0.02341468  0.47455419  0.38653733
   0.09357675  0.57242044  0.38868242
   0.09407637  0.57309794  0.45131532
   0.19193482  0.64326725  0.45345952
   0.00217451  0.74246258  0.38520318
   0.08227197  0.82742722  0.38444252
   0.09338535  0.82162603  0.45423049
   0.16857850  0.91100516  0.45430280
   0.24226819  0.00359612  0.38346304
   0.29709884  0.11061909  0.38496521
   0.33086387  0.07978533  0.44995421
   0.41114516  0.16108350  0.44515596
   0.35141575  0.35135261  0.40778606
   0.31518967  0.31521129  0.43221407
   0.25546030  0.50548059  0.39484387
   0.33574196  0.58677838  0.39004627
   0.36950657  0.55594452  0.45503556
   0.42433759  0.66296787  0.45653778
   0.24951612  0.75128408  0.38535003
   0.33097687  0.83592832  0.38445986
   0.33562920  0.83063532  0.45554091
   0.41708987  0.91527952  0.45464984
   0.47467079  0.02329662  0.38654035
   0.57252898  0.09346652  0.38868374
   0.57302969  0.09414293  0.45131654
   0.64319113  0.19200946  0.45346265
   0.50557486  0.25536263  0.39484508
   0.58688219  0.33563221  0.39004326
   0.55586767  0.36958343  0.45503880
   0.66289004  0.42441485  0.45654411
   0.50466280  0.50455176  0.39015466
   0.58587961  0.58576414  0.38703641
   0.59038645  0.59046780  0.45719023
   0.67115853  0.67123443  0.45667454
   0.49802714  0.75555878  0.38569833
   0.57322055  0.84493793  0.38576967
   0.58433412  0.83913643  0.45555569
   0.66443161  0.92410031  0.45479459
   0.74257584  0.00205937  0.38520227
   0.82754309  0.08215318  0.38443793
   0.82154891  0.09346273  0.45423363
   0.91092864  0.16865533  0.45430844
   0.75139448  0.24940070  0.38534251
   0.83604472  0.33085682  0.38445102
   0.83056123  0.33570707  0.45555033
   0.91521137  0.41716322  0.45465792
   0.75567731  0.49790835  0.38569303
   0.84505709  0.57310115  0.38576669
   0.83906271  0.58441078  0.45556063
   0.92402906  0.66450481  0.45479565
   0.74968894  0.74957052  0.38576866
   0.83127999  0.83116326  0.38468506
   0.83532576  0.83540055  0.45531259
   0.91691688  0.91699334  0.45423059
 
 position of ions in cartesian coordinates  (Angst):
  14.79633836  8.53251588 19.12525284
   1.11050644  0.63805998 19.12292762
   1.17427276  0.67559213 22.62768815
   2.38362707  1.37317788 22.46983152
   1.23730538  2.02715863 19.15395903
   2.56668915  2.50607833 19.22711430
   2.42942957  2.78496677 22.47416446
   3.63501521  3.47468315 22.23217653
   2.60598376  3.99000437 19.30455791
   3.79054381  4.82611225 19.40957923
   3.79501162  4.82937051 22.53864864
   5.11182127  5.43619545 22.64364793
   3.75196107  6.24609084 19.23465644
   4.96914370  6.97505359 19.19455608
   5.04476072  6.92503088 22.68104060
   6.23599653  7.69042837 22.68255719
   2.37640914  0.05235363 19.15444622
   3.45657662  0.96333270 19.22741673
   3.62861415  0.70590867 22.47419820
   4.82931348  1.40414312 22.23242935
   5.20650528  3.00097693 20.36370463
   4.66607568  2.68959026 21.58502503
   5.04326881  4.28642569 19.71628528
   6.24396984  4.98465689 19.47454908
   6.41600265  4.72723200 22.72134473
   7.49617578  5.63821431 22.79431809
   6.22835952  6.35879687 19.23883464
   7.45733351  7.08527401 19.19225178
   7.47191690  7.03848368 22.74341016
   8.70089006  7.76496053 22.69678203
   4.76076130  0.25437145 19.30506908
   6.07757151  0.86120141 19.41002763
   6.08204459  0.86445069 22.53909177
   7.26659967  1.70056070 22.64416453
   6.23756920  2.21588077 19.71654548
   7.44315526  2.90559995 19.47459930
   7.30589206  3.18448416 22.72165565
   8.63528014  3.66340736 22.79482444
   7.48895772  4.31738909 19.47896304
   8.69831726  5.01497699 19.32111501
   8.76207725  5.05250540 22.82582086
   9.96464959  5.74616010 22.79800593
   8.69325120  6.43333182 19.25312246
   9.88448983  7.19872962 19.25459078
   9.96010710  7.14870428 22.74097779
  11.17728625  7.87766065 22.70085520
   7.28742898  0.11683194 19.23520232
   8.52786025  0.80547265 19.19492207
   8.52180279  0.89709738 22.68177899
   9.78078091  1.54505492 22.68343187
   8.62484515  2.20406959 19.23885988
   9.86905619  2.90415490 19.19221352
   9.83527668  2.94133357 22.74427578
  11.07948702  3.64141916 22.69758317
   9.92355100  4.30043185 19.25306335
  11.18253062  4.94839109 19.25465865
  11.17647175  5.04001651 22.74142774
  12.41689527  5.72865898 22.70111578
  11.13724143  6.42181665 19.25361848
  12.35207798  7.12258792 19.19741021
  12.40891743  7.15609274 22.72579403
  13.62375488  7.85686440 22.66966551
 


--------------------------------------------------------------------------------------------------------


 k-point  1 :   0.0000 0.0000 0.0000  plane waves:  231039
 k-point  2 :   0.1667-0.0000-0.0000  plane waves:  230935
 k-point  3 :   0.3333-0.0000 0.0000  plane waves:  230858
 k-point  4 :   0.5000-0.0000 0.0000  plane waves:  230914
 k-point  5 :   0.0000 0.1667-0.0000  plane waves:  230935
 k-point  6 :   0.1667 0.1667-0.0000  plane waves:  230967
 k-point  7 :   0.3333 0.1667-0.0000  plane waves:  230896
 k-point  8 :   0.5000 0.1667 0.0000  plane waves:  230884
 k-point  9 :  -0.3333 0.1667-0.0000  plane waves:  230871
 k-point 10 :  -0.1667 0.1667-0.0000  plane waves:  230954
 k-point 11 :   0.0000 0.3333 0.0000  plane waves:  230854
 k-point 12 :   0.1667 0.3333 0.0000  plane waves:  230904
 k-point 13 :   0.3333 0.3333 0.0000  plane waves:  230890
 k-point 14 :   0.5000 0.3333 0.0000  plane waves:  230838
 k-point 15 :  -0.3333 0.3333 0.0000  plane waves:  230776
 k-point 16 :  -0.1667 0.3333 0.0000  plane waves:  230867
 k-point 17 :  -0.0000 0.5000 0.0000  plane waves:  230918
 k-point 18 :   0.1667 0.5000 0.0000  plane waves:  230880
 k-point 19 :   0.3333 0.5000-0.0000  plane waves:  230835
 k-point 20 :   0.5000 0.5000-0.0000  plane waves:  230806

 maximum and minimum number of plane-waves per node :     28928    28806

 maximum number of plane-waves:    231039
 maximum index in each direction: 
   IXMAX=   23   IYMAX=   23   IZMAX=  118
   IXMIN=  -23   IYMIN=  -23   IZMIN= -118


 parallel 3D FFT for wavefunctions:
    minimum data exchange during FFTs selected (reduces bandwidth)
 parallel 3D FFT for charge:
    minimum data exchange during FFTs selected (reduces bandwidth)


 total amount of memory used by VASP MPI-rank0   827248. kBytes
=======================================================================

   base      :      30000. kBytes
   nonl-proj :      65638. kBytes
   fftplans  :      41100. kBytes
   grid      :      97443. kBytes
   one-center:         49. kBytes
   wavefun   :     593018. kBytes
 
     INWAV:  cpu time    0.0000: real time    0.0000
 Broyden mixing: mesh for mixing (old mesh)
   NGX = 47   NGY = 47   NGZ =237
  (NGX  =192   NGY  =192   NGZ  =960)
  gives a total of 523533 points

 initial charge density was supplied:
 charge density of overlapping atoms calculated
 number of electron     248.0000000 magnetization      62.0000000
 keeping initial charge density in first step


--------------------------------------------------------------------------------------------------------


 Maximum index for augmentation-charges          580 (set IRDMAX)


--------------------------------------------------------------------------------------------------------


 First call to EWALD:  gamma=   0.111
 Maximum number of real-space cells 5x 5x 1
 Maximum number of reciprocal cells 2x 2x 8

    FEWALD:  cpu time    0.0017: real time    0.0017


--------------------------------------- Iteration      1(   1)  ---------------------------------------


    POTLOK:  cpu time    0.9646: real time    1.0225
    SETDIJ:  cpu time    0.0167: real time    0.0370
     EDDAV:  cpu time  280.6566: real time  281.4821
 BZINTS: Fermi energy:  7.024325;248.000000 electrons
         Band energy:-609.619685;  BLOECHL correction: -0.022133
       DOS:  cpu time    0.0414: real time    0.0415
    --------------------------------------------
      LOOP:  cpu time  281.6794: real time  282.5832

 eigenvalue-minimisations  : 16032
 total energy-change (2. order) : 0.2910126E+04  (-0.1017176E+05)
 number of electron     248.0000000 magnetization      62.0000000
 augmentation part      248.0000000 magnetization      62.0000000

 Free energy of the ion-electron system (eV)
  ---------------------------------------------------
  alpha Z        PSCENC =        76.95909245
  Ewald energy   TEWEN  =    213080.70530516
  -Hartree energ DENC   =   -219555.84119513
  -exchange      EXHF   =         0.00000000
  -V(xc)+E(xc)   XCENC  =       829.07920691
  PAW double counting   =      6720.41546902    -6755.16969339
  entropy T*S    EENTRO =         0.00000000
  eigenvalues    EBANDS =      -609.61968534
  atomic energy  EATOM  =      9123.59704331
  Solvation  Ediel_sol  =         0.00000000
  ---------------------------------------------------
  free energy    TOTEN  =      2910.12554299 eV

  energy without entropy =     2910.12554299  energy(sigma->0) =     2910.12554299


--------------------------------------------------------------------------------------------------------




--------------------------------------- Iteration      1(   2)  ---------------------------------------


     EDDAV:  cpu time  415.0270: real time  416.0382
 BZINTS: Fermi energy: -2.713000;248.000000 electrons
         Band energy:***********;  BLOECHL correction: -0.025121
       DOS:  cpu time    0.0449: real time    0.0450
    --------------------------------------------
      LOOP:  cpu time  415.0720: real time  416.0832

 eigenvalue-minimisations  : 25368
 total energy-change (2. order) :-0.2833329E+04  (-0.2590111E+04)
 number of electron     248.0000000 magnetization      62.0000000
 augmentation part      248.0000000 magnetization      62.0000000

 Free energy of the ion-electron system (eV)
  ---------------------------------------------------
  alpha Z        PSCENC =        76.95909245
  Ewald energy   TEWEN  =    213080.70530516
  -Hartree energ DENC   =   -219555.84119513
  -exchange      EXHF   =         0.00000000
  -V(xc)+E(xc)   XCENC  =       829.07920691
  PAW double counting   =      6720.41546902    -6755.16969339
  entropy T*S    EENTRO =         0.00000000
  eigenvalues    EBANDS =     -3442.94835062
  atomic energy  EATOM  =      9123.59704331
  Solvation  Ediel_sol  =         0.00000000
  ---------------------------------------------------
  free energy    TOTEN  =        76.79687772 eV

  energy without entropy =       76.79687772  energy(sigma->0) =       76.79687772


--------------------------------------------------------------------------------------------------------




--------------------------------------- Iteration      1(   3)  ---------------------------------------


     EDDAV:  cpu time  345.8508: real time  346.6850
 BZINTS: Fermi energy: -6.638872;248.000000 electrons
         Band energy:***********;  BLOECHL correction: -0.018177
       DOS:  cpu time    0.0474: real time    0.0475
    --------------------------------------------
      LOOP:  cpu time  345.8982: real time  346.7325

 eigenvalue-minimisations  : 20232
 total energy-change (2. order) :-0.6235264E+03  (-0.6208298E+03)
 number of electron     248.0000000 magnetization      62.0000000
 augmentation part      248.0000000 magnetization      62.0000000

 Free energy of the ion-electron system (eV)
  ---------------------------------------------------
  alpha Z        PSCENC =        76.95909245
  Ewald energy   TEWEN  =    213080.70530516
  -Hartree energ DENC   =   -219555.84119513
  -exchange      EXHF   =         0.00000000
  -V(xc)+E(xc)   XCENC  =       829.07920691
  PAW double counting   =      6720.41546902    -6755.16969339
  entropy T*S    EENTRO =         0.00000000
  eigenvalues    EBANDS =     -4066.47475761
  atomic energy  EATOM  =      9123.59704331
  Solvation  Ediel_sol  =         0.00000000
  ---------------------------------------------------
  free energy    TOTEN  =      -546.72952927 eV

  energy without entropy =     -546.72952927  energy(sigma->0) =     -546.72952927


--------------------------------------------------------------------------------------------------------




--------------------------------------- Iteration      1(   4)  ---------------------------------------


     EDDAV:  cpu time  343.9494: real time  344.7820
 BZINTS: Fermi energy: -6.869384;248.000000 electrons
         Band energy:***********;  BLOECHL correction: -0.018857
       DOS:  cpu time    0.0467: real time    0.0468
    --------------------------------------------
      LOOP:  cpu time  343.9961: real time  344.8288

 eigenvalue-minimisations  : 20112
 total energy-change (2. order) :-0.2659623E+02  (-0.2645640E+02)
 number of electron     248.0000000 magnetization      62.0000000
 augmentation part      248.0000000 magnetization      62.0000000

 Free energy of the ion-electron system (eV)
  ---------------------------------------------------
  alpha Z        PSCENC =        76.95909245
  Ewald energy   TEWEN  =    213080.70530516
  -Hartree energ DENC   =   -219555.84119513
  -exchange      EXHF   =         0.00000000
  -V(xc)+E(xc)   XCENC  =       829.07920691
  PAW double counting   =      6720.41546902    -6755.16969339
  entropy T*S    EENTRO =         0.00000000
  eigenvalues    EBANDS =     -4093.07099069
  atomic energy  EATOM  =      9123.59704331
  Solvation  Ediel_sol  =         0.00000000
  ---------------------------------------------------
  free energy    TOTEN  =      -573.32576236 eV

  energy without entropy =     -573.32576236  energy(sigma->0) =     -573.32576236


--------------------------------------------------------------------------------------------------------




--------------------------------------- Iteration      1(   5)  ---------------------------------------


     EDDAV:  cpu time  365.8280: real time  366.7112
 BZINTS: Fermi energy: -6.875389;248.000000 electrons
         Band energy:***********;  BLOECHL correction: -0.019015
       DOS:  cpu time    0.0461: real time    0.0462
    CHARGE:  cpu time   13.0244: real time   13.0551
    MIXING:  cpu time    0.0286: real time    0.0440
    --------------------------------------------
      LOOP:  cpu time  378.9271: real time  379.8565

 eigenvalue-minimisations  : 21864
 total energy-change (2. order) :-0.7016658E+00  (-0.6995481E+00)
 number of electron     247.9999999 magnetization      60.5402012
 augmentation part        6.5118971 magnetization      57.3644555

 Broyden mixing:
  rms(total) = 0.49829E+01    rms(broyden)= 0.49829E+01
  rms(prec ) = 0.50119E+01
  weight for this iteration     100.00

 Free energy of the ion-electron system (eV)
  ---------------------------------------------------
  alpha Z        PSCENC =        76.95909245
  Ewald energy   TEWEN  =    213080.70530516
  -Hartree energ DENC   =   -219555.84119513
  -exchange      EXHF   =         0.00000000
  -V(xc)+E(xc)   XCENC  =       829.07920691
  PAW double counting   =      6720.41546902    -6755.16969339
  entropy T*S    EENTRO =         0.00000000
  eigenvalues    EBANDS =     -4093.77265650
  atomic energy  EATOM  =      9123.59704331
  Solvation  Ediel_sol  =         0.00000000
  ---------------------------------------------------
  free energy    TOTEN  =      -574.02742817 eV

  energy without entropy =     -574.02742817  energy(sigma->0) =     -574.02742817


--------------------------------------------------------------------------------------------------------




--------------------------------------- Iteration      1(   6)  ---------------------------------------


    POTLOK:  cpu time    0.8854: real time    0.8976
    SETDIJ:  cpu time    0.0174: real time    0.0174
     EDDAV:  cpu time  305.9071: real time  306.6344
 BZINTS: Fermi energy: -5.192718;248.000000 electrons
         Band energy:***********;  BLOECHL correction: -0.029615
       DOS:  cpu time    0.0452: real time    0.0453
    CHARGE:  cpu time   13.1423: real time   13.1733
    MIXING:  cpu time    0.0193: real time    0.0207
    --------------------------------------------
      LOOP:  cpu time  320.0166: real time  320.7887

 eigenvalue-minimisations  : 17412
 total energy-change (2. order) : 0.1751606E+03  (-0.2821515E+02)
 number of electron     247.9999999 magnetization      58.7129502
 augmentation part        6.4384832 magnetization      54.2952443

 Broyden mixing:
  rms(total) = 0.30093E+01    rms(broyden)= 0.30093E+01
  rms(prec ) = 0.30291E+01
  weight for this iteration     100.00

 eigenvalues of (default mixing * dielectric matrix)
  average eigenvalue GAMMA=   1.0312
  1.0312

 Free energy of the ion-electron system (eV)
  ---------------------------------------------------
  alpha Z        PSCENC =        76.95909245
  Ewald energy   TEWEN  =    213080.70530516
  -Hartree energ DENC   =   -219901.81174591
  -exchange      EXHF   =         0.00000000
  -V(xc)+E(xc)   XCENC  =       942.30338024
  PAW double counting   =     12237.63204985   -12277.35346481
  entropy T*S    EENTRO =         0.00000000
  eigenvalues    EBANDS =     -3680.89846284
  atomic energy  EATOM  =      9123.59704331
  Solvation  Ediel_sol  =         0.00000000
  ---------------------------------------------------
  free energy    TOTEN  =      -398.86680254 eV

  energy without entropy =     -398.86680254  energy(sigma->0) =     -398.86680254


--------------------------------------------------------------------------------------------------------




--------------------------------------- Iteration      1(   7)  ---------------------------------------


    POTLOK:  cpu time    0.8859: real time    0.8951
    SETDIJ:  cpu time    0.0139: real time    0.0140
     EDDAV:  cpu time  324.1693: real time  324.9406
 BZINTS: Fermi energy: -4.111194;248.000000 electrons
         Band energy:***********;  BLOECHL correction: -0.022851
       DOS:  cpu time    0.0453: real time    0.0454
    CHARGE:  cpu time   13.0477: real time   13.0785
    MIXING:  cpu time    0.0197: real time    0.0197
    --------------------------------------------
      LOOP:  cpu time  338.1818: real time  338.9932

 eigenvalue-minimisations  : 18864
 total energy-change (2. order) :-0.1504044E+02  (-0.3212206E+01)
 number of electron     247.9999999 magnetization      56.0550284
 augmentation part        6.2463061 magnetization      51.7900797

 Broyden mixing:
  rms(total) = 0.20813E+01    rms(broyden)= 0.20813E+01
  rms(prec ) = 0.20871E+01
  weight for this iteration     100.00

 eigenvalues of (default mixing * dielectric matrix)
  average eigenvalue GAMMA=   1.4120
  0.8295  1.9945

 Free energy of the ion-electron system (eV)
  ---------------------------------------------------
  alpha Z        PSCENC =        76.95909245
  Ewald energy   TEWEN  =    213080.70530516
  -Hartree energ DENC   =   -220249.82421041
  -exchange      EXHF   =         0.00000000
  -V(xc)+E(xc)   XCENC  =       933.95142188
  PAW double counting   =     18380.55759965   -18423.27151269
  entropy T*S    EENTRO =         0.00000000
  eigenvalues    EBANDS =     -3336.58197971
  atomic energy  EATOM  =      9123.59704331
  Solvation  Ediel_sol  =         0.00000000
  ---------------------------------------------------
  free energy    TOTEN  =      -413.90724035 eV

  energy without entropy =     -413.90724035  energy(sigma->0) =     -413.90724035


--------------------------------------------------------------------------------------------------------




--------------------------------------- Iteration      1(   8)  ---------------------------------------


    POTLOK:  cpu time    0.8772: real time    0.8865
    SETDIJ:  cpu time    0.0136: real time    0.0136
     EDDAV:  cpu time  310.5765: real time  311.3170
 BZINTS: Fermi energy: -3.123517;248.000000 electrons
         Band energy:***********;  BLOECHL correction: -0.020164
       DOS:  cpu time    0.0420: real time    0.0421
    CHARGE:  cpu time   12.9890: real time   13.0196
    MIXING:  cpu time    0.0202: real time    0.0203
    --------------------------------------------
      LOOP:  cpu time  324.5186: real time  325.2991

 eigenvalue-minimisations  : 17880
 total energy-change (2. order) :-0.1463045E+02  (-0.1683198E+01)
 number of electron     247.9999999 magnetization      54.0061984
 augmentation part        6.0523518 magnetization      49.8101459

 Broyden mixing:
  rms(total) = 0.14756E+01    rms(broyden)= 0.14756E+01
  rms(prec ) = 0.14769E+01
  weight for this iteration     100.00

 eigenvalues of (default mixing * dielectric matrix)
  average eigenvalue GAMMA=   1.3797
  2.4010  1.0324  0.7059

 Free energy of the ion-electron system (eV)
  ---------------------------------------------------
  alpha Z        PSCENC =        76.95909245
  Ewald energy   TEWEN  =    213080.70530516
  -Hartree energ DENC   =   -220579.61893013
  -exchange      EXHF   =         0.00000000
  -V(xc)+E(xc)   XCENC  =       934.86491258
  PAW double counting   =     25502.38446978   -25546.64419169
  entropy T*S    EENTRO =         0.00000000
  eigenvalues    EBANDS =     -3020.78538791
  atomic energy  EATOM  =      9123.59704331
  Solvation  Ediel_sol  =         0.00000000
  ---------------------------------------------------
  free energy    TOTEN  =      -428.53768643 eV

  energy without entropy =     -428.53768643  energy(sigma->0) =     -428.53768643


--------------------------------------------------------------------------------------------------------




--------------------------------------- Iteration      1(   9)  ---------------------------------------


    POTLOK:  cpu time    0.9007: real time    0.9103
    SETDIJ:  cpu time    0.0148: real time    0.0157
     EDDAV:  cpu time  305.3761: real time  306.1067
 BZINTS: Fermi energy: -3.017936;248.000000 electrons
         Band energy:***********;  BLOECHL correction: -0.020408
       DOS:  cpu time    0.0464: real time    0.0465
    CHARGE:  cpu time   12.9808: real time   13.0115
    MIXING:  cpu time    0.0212: real time    0.0213
    --------------------------------------------
      LOOP:  cpu time  319.3401: real time  320.1119

 eigenvalue-minimisations  : 17532
 total energy-change (2. order) :-0.1961555E+02  (-0.5039859E+00)
 number of electron     247.9999999 magnetization      50.6327239
 augmentation part        6.0083035 magnetization      46.7335612

 Broyden mixing:
  rms(total) = 0.12587E+01    rms(broyden)= 0.12587E+01
  rms(prec ) = 0.12596E+01
  weight for this iteration     100.00

 eigenvalues of (default mixing * dielectric matrix)
  average eigenvalue GAMMA=   1.4621
  2.6785  1.6790  0.8485  0.6425

 Free energy of the ion-electron system (eV)
  ---------------------------------------------------
  alpha Z        PSCENC =        76.95909245
  Ewald energy   TEWEN  =    213080.70530516
  -Hartree energ DENC   =   -220657.38047168
  -exchange      EXHF   =         0.00000000
  -V(xc)+E(xc)   XCENC  =       924.27838699
  PAW double counting   =     27094.09837763   -27137.64935928
  entropy T*S    EENTRO =         0.00000000
  eigenvalues    EBANDS =     -2952.76160873
  atomic energy  EATOM  =      9123.59704331
  Solvation  Ediel_sol  =         0.00000000
  ---------------------------------------------------
  free energy    TOTEN  =      -448.15323416 eV

  energy without entropy =     -448.15323416  energy(sigma->0) =     -448.15323416


--------------------------------------------------------------------------------------------------------




--------------------------------------- Iteration      1(  10)  ---------------------------------------


    POTLOK:  cpu time    0.8784: real time    0.8873
    SETDIJ:  cpu time    0.0136: real time    0.0137
     EDDAV:  cpu time  300.3004: real time  301.0223
 BZINTS: Fermi energy: -2.816132;248.000000 electrons
         Band energy:***********;  BLOECHL correction: -0.029597
       DOS:  cpu time    0.0441: real time    0.0442
    CHARGE:  cpu time   13.0181: real time   13.0488
    MIXING:  cpu time    0.0233: real time    0.0233
    --------------------------------------------
      LOOP:  cpu time  314.2778: real time  315.0395

 eigenvalue-minimisations  : 17088
 total energy-change (2. order) :-0.3786969E+02  (-0.1944896E+01)
 number of electron     247.9999999 magnetization      46.6223785
 augmentation part        5.9834806 magnetization      44.0140523

 Broyden mixing:
  rms(total) = 0.10515E+01    rms(broyden)= 0.10515E+01
  rms(prec ) = 0.10520E+01
  weight for this iteration     100.00

 eigenvalues of (default mixing * dielectric matrix)
  average eigenvalue GAMMA=   1.6105
  3.3801  2.2574  1.0188  0.7881  0.6083

 Free energy of the ion-electron system (eV)
  ---------------------------------------------------
  alpha Z        PSCENC =        76.95909245
  Ewald energy   TEWEN  =    213080.70530516
  -Hartree energ DENC   =   -220731.47692545
  -exchange      EXHF   =         0.00000000
  -V(xc)+E(xc)   XCENC  =       902.53302374
  PAW double counting   =     27923.78841371   -27966.09917229
  entropy T*S    EENTRO =         0.00000000
  eigenvalues    EBANDS =     -2896.02970583
  atomic energy  EATOM  =      9123.59704331
  Solvation  Ediel_sol  =         0.00000000
  ---------------------------------------------------
  free energy    TOTEN  =      -486.02292520 eV

  energy without entropy =     -486.02292520  energy(sigma->0) =     -486.02292520


--------------------------------------------------------------------------------------------------------




--------------------------------------- Iteration      1(  11)  ---------------------------------------


    POTLOK:  cpu time    0.9159: real time    0.9268
    SETDIJ:  cpu time    0.0154: real time    0.0164
     EDDAV:  cpu time  303.6265: real time  304.3499
 BZINTS: Fermi energy: -2.610666;248.000000 electrons
         Band energy:***********;  BLOECHL correction: -0.017190
       DOS:  cpu time    0.0446: real time    0.0447
    CHARGE:  cpu time   13.1561: real time   13.1873
    MIXING:  cpu time    0.0225: real time    0.0225
    --------------------------------------------
      LOOP:  cpu time  317.7809: real time  318.5477

 eigenvalue-minimisations  : 17352
 total energy-change (2. order) :-0.2766344E+02  (-0.1512770E+01)
 number of electron     247.9999999 magnetization      40.0497677
 augmentation part        5.9576631 magnetization      39.2747770

 Broyden mixing:
  rms(total) = 0.90103E+00    rms(broyden)= 0.90103E+00
  rms(prec ) = 0.90148E+00
  weight for this iteration     100.00

 eigenvalues of (default mixing * dielectric matrix)
  average eigenvalue GAMMA=   1.8134
  4.7048  2.3409  1.5597  0.9204  0.7444  0.6101

 Free energy of the ion-electron system (eV)
  ---------------------------------------------------
  alpha Z        PSCENC =        76.95909245
  Ewald energy   TEWEN  =    213080.70530516
  -Hartree energ DENC   =   -220791.05439526
  -exchange      EXHF   =         0.00000000
  -V(xc)+E(xc)   XCENC  =       886.22314721
  PAW double counting   =     27774.47620290   -27816.16981455
  entropy T*S    EENTRO =         0.00000000
  eigenvalues    EBANDS =     -2848.42294864
  atomic energy  EATOM  =      9123.59704331
  Solvation  Ediel_sol  =         0.00000000
  ---------------------------------------------------
  free energy    TOTEN  =      -513.68636741 eV

  energy without entropy =     -513.68636741  energy(sigma->0) =     -513.68636741


--------------------------------------------------------------------------------------------------------




--------------------------------------- Iteration      1(  12)  ---------------------------------------


    POTLOK:  cpu time    0.8836: real time    0.8947
    SETDIJ:  cpu time    0.0142: real time    0.0143
     EDDAV:  cpu time  294.9106: real time  295.6206
 BZINTS: Fermi energy: -2.551665;248.000000 electrons
         Band energy:***********;  BLOECHL correction: -0.000316
       DOS:  cpu time    0.0359: real time    0.0360
    CHARGE:  cpu time   13.9572: real time   13.9901
    MIXING:  cpu time    0.0249: real time    0.0259
    --------------------------------------------
      LOOP:  cpu time  309.8264: real time  310.5815

 eigenvalue-minimisations  : 16776
 total energy-change (2. order) :-0.2738240E+02  (-0.2304519E+01)
 number of electron     247.9999999 magnetization      37.2494194
 augmentation part        5.9133049 magnetization      37.1355451

 Broyden mixing:
  rms(total) = 0.69860E+00    rms(broyden)= 0.69860E+00
  rms(prec ) = 0.69939E+00
  weight for this iteration     100.00

 eigenvalues of (default mixing * dielectric matrix)
  average eigenvalue GAMMA=   2.0207
  6.7886  2.4378  1.8777  1.0387  0.7437  0.6555  0.6029

 Free energy of the ion-electron system (eV)
  ---------------------------------------------------
  alpha Z        PSCENC =        76.95909245
  Ewald energy   TEWEN  =    213080.70530516
  -Hartree energ DENC   =   -220844.53477700
  -exchange      EXHF   =         0.00000000
  -V(xc)+E(xc)   XCENC  =       869.44508813
  PAW double counting   =     26553.39903320   -26595.20294985
  entropy T*S    EENTRO =         0.00000000
  eigenvalues    EBANDS =     -2805.43660694
  atomic energy  EATOM  =      9123.59704331
  Solvation  Ediel_sol  =         0.00000000
  ---------------------------------------------------
  free energy    TOTEN  =      -541.06877153 eV

  energy without entropy =     -541.06877153  energy(sigma->0) =     -541.06877153


--------------------------------------------------------------------------------------------------------




--------------------------------------- Iteration      1(  13)  ---------------------------------------


    POTLOK:  cpu time    0.9432: real time    1.0219
    SETDIJ:  cpu time    0.0152: real time    0.0152
     EDDAV:  cpu time  310.4871: real time  311.2324
 BZINTS: Fermi energy: -2.625147;248.000000 electrons
         Band energy:***********;  BLOECHL correction: -0.000288
       DOS:  cpu time    0.0358: real time    0.0359
    CHARGE:  cpu time   13.0503: real time   13.0810
    MIXING:  cpu time    0.0236: real time    0.0236
    --------------------------------------------
      LOOP:  cpu time  324.5551: real time  325.4100

 eigenvalue-minimisations  : 17772
 total energy-change (2. order) :-0.9521906E+01  (-0.1017798E+01)
 number of electron     247.9999999 magnetization      34.9503599
 augmentation part        5.8781784 magnetization      34.9035486

 Broyden mixing:
  rms(total) = 0.61376E+00    rms(broyden)= 0.61376E+00
  rms(prec ) = 0.61451E+00
  weight for this iteration     100.00

 eigenvalues of (default mixing * dielectric matrix)
  average eigenvalue GAMMA=   2.2167
  8.8159  2.5819  2.0657  1.2319  0.8663  0.8663  0.6944  0.6108

 Free energy of the ion-electron system (eV)
  ---------------------------------------------------
  alpha Z        PSCENC =        76.95909245
  Ewald energy   TEWEN  =    213080.70530516
  -Hartree energ DENC   =   -220834.91488082
  -exchange      EXHF   =         0.00000000
  -V(xc)+E(xc)   XCENC  =       863.76171664
  PAW double counting   =     25874.34728141   -25916.35789136
  entropy T*S    EENTRO =         0.00000000
  eigenvalues    EBANDS =     -2818.68834428
  atomic energy  EATOM  =      9123.59704331
  Solvation  Ediel_sol  =         0.00000000
  ---------------------------------------------------
  free energy    TOTEN  =      -550.59067749 eV

  energy without entropy =     -550.59067749  energy(sigma->0) =     -550.59067749


--------------------------------------------------------------------------------------------------------




--------------------------------------- Iteration      1(  14)  ---------------------------------------


    POTLOK:  cpu time    0.8771: real time    0.8867
    SETDIJ:  cpu time    0.0144: real time    0.0144
     EDDAV:  cpu time  291.3610: real time  292.0544
 BZINTS: Fermi energy: -2.773001;248.000000 electrons
         Band energy:***********;  BLOECHL correction: -0.002431
       DOS:  cpu time    0.0381: real time    0.0382
    CHARGE:  cpu time   13.0597: real time   13.0904
    MIXING:  cpu time    0.0246: real time    0.0246
    --------------------------------------------
      LOOP:  cpu time  305.3749: real time  306.1087

 eigenvalue-minimisations  : 16488
 total energy-change (2. order) :-0.3366480E+01  (-0.1470306E+00)
 number of electron     247.9999999 magnetization      31.8823708
 augmentation part        5.8791478 magnetization      31.8404043

 Broyden mixing:
  rms(total) = 0.56117E+00    rms(broyden)= 0.56117E+00
  rms(prec ) = 0.56158E+00
  weight for this iteration     100.00

 eigenvalues of (default mixing * dielectric matrix)
  average eigenvalue GAMMA=   2.2353
  9.9590  2.5710  2.3614  1.1523  1.1523  0.8112  0.8112  0.6082  0.6912

 Free energy of the ion-electron system (eV)
  ---------------------------------------------------
  alpha Z        PSCENC =        76.95909245
  Ewald energy   TEWEN  =    213080.70530516
  -Hartree energ DENC   =   -220792.11651537
  -exchange      EXHF   =         0.00000000
  -V(xc)+E(xc)   XCENC  =       859.76415566
  PAW double counting   =     25554.30146836   -25596.39288340
  entropy T*S    EENTRO =         0.00000000
  eigenvalues    EBANDS =     -2860.77482416
  atomic energy  EATOM  =      9123.59704331
  Solvation  Ediel_sol  =         0.00000000
  ---------------------------------------------------
  free energy    TOTEN  =      -553.95715798 eV

  energy without entropy =     -553.95715798  energy(sigma->0) =     -553.95715798


--------------------------------------------------------------------------------------------------------




--------------------------------------- Iteration      1(  15)  ---------------------------------------


    POTLOK:  cpu time    0.8782: real time    0.8997
    SETDIJ:  cpu time    0.0142: real time    0.0142
     EDDAV:  cpu time  292.2130: real time  292.9095
 BZINTS: Fermi energy: -2.932998;248.000000 electrons
         Band energy:***********;  BLOECHL correction: -0.001697
       DOS:  cpu time    0.0392: real time    0.0393
    CHARGE:  cpu time   13.0257: real time   13.0564
    MIXING:  cpu time    0.0249: real time    0.0250
    --------------------------------------------
      LOOP:  cpu time  306.1952: real time  306.9442

 eigenvalue-minimisations  : 16476
 total energy-change (2. order) :-0.1597395E+01  (-0.4694010E-01)
 number of electron     247.9999999 magnetization      26.7524832
 augmentation part        5.8778240 magnetization      26.7242961

 Broyden mixing:
  rms(total) = 0.51153E+00    rms(broyden)= 0.51153E+00
  rms(prec ) = 0.51181E+00
  weight for this iteration     100.00

 eigenvalues of (default mixing * dielectric matrix)
  average eigenvalue GAMMA=   2.2967
 10.7425  2.9928  2.5713  1.6854  1.1820  0.8691  0.8691  0.7684  0.6093  0.6768

 Free energy of the ion-electron system (eV)
  ---------------------------------------------------
  alpha Z        PSCENC =        76.95909245
  Ewald energy   TEWEN  =    213080.70530516
  -Hartree energ DENC   =   -220753.15288126
  -exchange      EXHF   =         0.00000000
  -V(xc)+E(xc)   XCENC  =       857.93044139
  PAW double counting   =     25568.66842135   -25610.84150477
  entropy T*S    EENTRO =         0.00000000
  eigenvalues    EBANDS =     -2899.42047029
  atomic energy  EATOM  =      9123.59704331
  Solvation  Ediel_sol  =         0.00000000
  ---------------------------------------------------
  free energy    TOTEN  =      -555.55455265 eV

  energy without entropy =     -555.55455265  energy(sigma->0) =     -555.55455265


--------------------------------------------------------------------------------------------------------




--------------------------------------- Iteration      1(  16)  ---------------------------------------


    POTLOK:  cpu time    0.8791: real time    0.8877
    SETDIJ:  cpu time    0.0141: real time    0.0142
     EDDAV:  cpu time  284.3743: real time  285.0508
 BZINTS: Fermi energy: -3.210591;248.000000 electrons
         Band energy:***********;  BLOECHL correction: -0.001115
       DOS:  cpu time    0.0391: real time    0.0392
    CHARGE:  cpu time   12.9760: real time   13.0065
    MIXING:  cpu time    0.0308: real time    0.0500
    --------------------------------------------
      LOOP:  cpu time  298.3135: real time  299.0484

 eigenvalue-minimisations  : 15960
 total energy-change (2. order) :-0.1146060E+01  (-0.5841848E-01)
 number of electron     247.9999999 magnetization      19.2663999
 augmentation part        5.8806686 magnetization      19.2436649

 Broyden mixing:
  rms(total) = 0.44114E+00    rms(broyden)= 0.44114E+00
  rms(prec ) = 0.44146E+00
  weight for this iteration     100.00

 eigenvalues of (default mixing * dielectric matrix)
  average eigenvalue GAMMA=   2.4176
 11.6054  4.3014  2.4673  2.1847  1.1685  1.1685  0.8291  0.8291  0.7611  0.6125
  0.6658

 Free energy of the ion-electron system (eV)
  ---------------------------------------------------
  alpha Z        PSCENC =        76.95909245
  Ewald energy   TEWEN  =    213080.70530516
  -Hartree energ DENC   =   -220682.77048957
  -exchange      EXHF   =         0.00000000
  -V(xc)+E(xc)   XCENC  =       856.27037718
  PAW double counting   =     25683.61741150   -25725.77130659
  entropy T*S    EENTRO =         0.00000000
  eigenvalues    EBANDS =     -2969.30804595
  atomic energy  EATOM  =      9123.59704331
  Solvation  Ediel_sol  =         0.00000000
  ---------------------------------------------------
  free energy    TOTEN  =      -556.70061250 eV

  energy without entropy =     -556.70061250  energy(sigma->0) =     -556.70061250


--------------------------------------------------------------------------------------------------------




--------------------------------------- Iteration      1(  17)  ---------------------------------------


    POTLOK:  cpu time    0.8764: real time    0.8865
    SETDIJ:  cpu time    0.0139: real time    0.0139
     EDDAV:  cpu time  292.3180: real time  293.0149
 BZINTS: Fermi energy: -3.549563;248.000000 electrons
         Band energy:***********;  BLOECHL correction: -0.000040
       DOS:  cpu time    0.0342: real time    0.0342
    CHARGE:  cpu time   13.7229: real time   13.7554
    MIXING:  cpu time    0.0276: real time    0.0276
    --------------------------------------------
      LOOP:  cpu time  306.9929: real time  307.7326

 eigenvalue-minimisations  : 16500
 total energy-change (2. order) :-0.1642815E+01  (-0.8508426E-01)
 number of electron     247.9999999 magnetization      13.1448406
 augmentation part        5.8843039 magnetization      13.1341464

 Broyden mixing:
  rms(total) = 0.35010E+00    rms(broyden)= 0.35010E+00
  rms(prec ) = 0.35073E+00
  weight for this iteration     100.00

 eigenvalues of (default mixing * dielectric matrix)
  average eigenvalue GAMMA=   2.5583
 12.7017  5.9935  2.4514  2.4514  1.3020  1.3020  0.9047  0.7982  0.7982  0.7407
  0.6151  0.6405

 Free energy of the ion-electron system (eV)
  ---------------------------------------------------
  alpha Z        PSCENC =        76.95909245
  Ewald energy   TEWEN  =    213080.70530516
  -Hartree energ DENC   =   -220598.93636433
  -exchange      EXHF   =         0.00000000
  -V(xc)+E(xc)   XCENC  =       854.25782322
  PAW double counting   =     25832.20894800   -25874.25513896
  entropy T*S    EENTRO =         0.00000000
  eigenvalues    EBANDS =     -3052.88013618
  atomic energy  EATOM  =      9123.59704331
  Solvation  Ediel_sol  =         0.00000000
  ---------------------------------------------------
  free energy    TOTEN  =      -558.34342733 eV

  energy without entropy =     -558.34342733  energy(sigma->0) =     -558.34342733


--------------------------------------------------------------------------------------------------------




--------------------------------------- Iteration      1(  18)  ---------------------------------------


    POTLOK:  cpu time    0.8920: real time    0.9017
    SETDIJ:  cpu time    0.0145: real time    0.0145
     EDDAV:  cpu time  299.3168: real time  300.0273
 BZINTS: Fermi energy: -3.742858;248.000000 electrons
         Band energy:***********;  BLOECHL correction: -0.000093
       DOS:  cpu time    0.0334: real time    0.0335
    CHARGE:  cpu time   13.0680: real time   13.0987
    MIXING:  cpu time    0.0278: real time    0.0279
    --------------------------------------------
      LOOP:  cpu time  313.3525: real time  314.1036

 eigenvalue-minimisations  : 17088
 total energy-change (2. order) :-0.1187224E+01  (-0.1567484E-01)
 number of electron     247.9999999 magnetization       5.7860314
 augmentation part        5.8803176 magnetization       5.7776159

 Broyden mixing:
  rms(total) = 0.26730E+00    rms(broyden)= 0.26730E+00
  rms(prec ) = 0.26813E+00
  weight for this iteration     100.00

 eigenvalues of (default mixing * dielectric matrix)
  average eigenvalue GAMMA=   2.9144
 15.7902  8.0294  2.6899  2.6899  1.9402  1.1479  1.1479  0.8427  0.8427  0.8341
  0.6951  0.6161  0.6210

 Free energy of the ion-electron system (eV)
  ---------------------------------------------------
  alpha Z        PSCENC =        76.95909245
  Ewald energy   TEWEN  =    213080.70530516
  -Hartree energ DENC   =   -220552.49429712
  -exchange      EXHF   =         0.00000000
  -V(xc)+E(xc)   XCENC  =       853.40154330
  PAW double counting   =     25975.69457912   -26017.74186672
  entropy T*S    EENTRO =         0.00000000
  eigenvalues    EBANDS =     -3099.65205125
  atomic energy  EATOM  =      9123.59704331
  Solvation  Ediel_sol  =         0.00000000
  ---------------------------------------------------
  free energy    TOTEN  =      -559.53065174 eV

  energy without entropy =     -559.53065174  energy(sigma->0) =     -559.53065174


--------------------------------------------------------------------------------------------------------




--------------------------------------- Iteration      1(  19)  ---------------------------------------


    POTLOK:  cpu time    0.8722: real time    0.8819
    SETDIJ:  cpu time    0.0144: real time    0.0144
     EDDAV:  cpu time  286.9459: real time  287.6314
 BZINTS: Fermi energy: -3.826386;248.000000 electrons
         Band energy:***********;  BLOECHL correction:  0.000000
       DOS:  cpu time    0.0082: real time    0.0082
    CHARGE:  cpu time   13.6616: real time   13.6945
    MIXING:  cpu time    0.0291: real time    0.0292
    --------------------------------------------
      LOOP:  cpu time  301.5314: real time  302.2597

 eigenvalue-minimisations  : 16116
 total energy-change (2. order) : 0.6031995E+00  (-0.1304686E-01)
 number of electron     247.9999999 magnetization       2.2923172
 augmentation part        5.8762076 magnetization       2.2884683

 Broyden mixing:
  rms(total) = 0.15493E+00    rms(broyden)= 0.15493E+00
  rms(prec ) = 0.15621E+00
  weight for this iteration     100.00

 eigenvalues of (default mixing * dielectric matrix)
  average eigenvalue GAMMA=   3.4158
 22.4684  9.3523  3.4874  2.5364  2.1849  1.2567  1.2567  0.9120  0.8289  0.8289
  0.7945  0.6834  0.6152  0.6152

 Free energy of the ion-electron system (eV)
  ---------------------------------------------------
  alpha Z        PSCENC =        76.95909245
  Ewald energy   TEWEN  =    213080.70530516
  -Hartree energ DENC   =   -220535.58030894
  -exchange      EXHF   =         0.00000000
  -V(xc)+E(xc)   XCENC  =       854.70199727
  PAW double counting   =     25927.90073872   -25969.99620266
  entropy T*S    EENTRO =         0.00000000
  eigenvalues    EBANDS =     -3117.21511760
  atomic energy  EATOM  =      9123.59704331
  Solvation  Ediel_sol  =         0.00000000
  ---------------------------------------------------
  free energy    TOTEN  =      -558.92745228 eV

  energy without entropy =     -558.92745228  energy(sigma->0) =     -558.92745228


--------------------------------------------------------------------------------------------------------




--------------------------------------- Iteration      1(  20)  ---------------------------------------


    POTLOK:  cpu time    0.9061: real time    0.9166
    SETDIJ:  cpu time    0.0139: real time    0.0139
     EDDAV:  cpu time  285.3910: real time  286.0735
 BZINTS: Fermi energy: -3.778723;248.000000 electrons
         Band energy:***********;  BLOECHL correction:  0.000000
       DOS:  cpu time    0.0089: real time    0.0089
    CHARGE:  cpu time   12.9637: real time   12.9941
    MIXING:  cpu time    0.0297: real time    0.0297
    --------------------------------------------
      LOOP:  cpu time  299.3133: real time  300.0369

 eigenvalue-minimisations  : 16068
 total energy-change (2. order) :-0.1560917E+00  (-0.4781778E-02)
 number of electron     247.9999999 magnetization       0.8406132
 augmentation part        5.8742475 magnetization       0.8389472

 Broyden mixing:
  rms(total) = 0.94288E-01    rms(broyden)= 0.94288E-01
  rms(prec ) = 0.95848E-01
  weight for this iteration     100.00

 eigenvalues of (default mixing * dielectric matrix)
  average eigenvalue GAMMA=   3.8925
 30.1226 10.1268  3.9730  2.4617  2.4617  1.7572  1.1242  1.1242  0.9281  0.8302
  0.8302  0.7471  0.6709  0.6108  0.6183

 Free energy of the ion-electron system (eV)
  ---------------------------------------------------
  alpha Z        PSCENC =        76.95909245
  Ewald energy   TEWEN  =    213080.70530516
  -Hartree energ DENC   =   -220545.61138755
  -exchange      EXHF   =         0.00000000
  -V(xc)+E(xc)   XCENC  =       854.82756242
  PAW double counting   =     25869.01244568   -25911.11073518
  entropy T*S    EENTRO =         0.00000000
  eigenvalues    EBANDS =     -3107.46287028
  atomic energy  EATOM  =      9123.59704331
  Solvation  Ediel_sol  =         0.00000000
  ---------------------------------------------------
  free energy    TOTEN  =      -559.08354398 eV

  energy without entropy =     -559.08354398  energy(sigma->0) =     -559.08354398


--------------------------------------------------------------------------------------------------------




--------------------------------------- Iteration      1(  21)  ---------------------------------------


    POTLOK:  cpu time    0.8700: real time    0.8805
    SETDIJ:  cpu time    0.0143: real time    0.0143
     EDDAV:  cpu time  294.1068: real time  294.8049
 BZINTS: Fermi energy: -3.733225;248.000000 electrons
         Band energy:***********;  BLOECHL correction:  0.000000
       DOS:  cpu time    0.0092: real time    0.0093
    CHARGE:  cpu time   13.1725: real time   13.2041
    MIXING:  cpu time    0.0363: real time    0.0364
    --------------------------------------------
      LOOP:  cpu time  308.2092: real time  308.9494

 eigenvalue-minimisations  : 16824
 total energy-change (2. order) :-0.9864865E+00  (-0.3927941E-02)
 number of electron     247.9999999 magnetization       0.2092731
 augmentation part        5.8744977 magnetization       0.2080936

 Broyden mixing:
  rms(total) = 0.44350E-01    rms(broyden)= 0.44350E-01
  rms(prec ) = 0.45666E-01
  weight for this iteration     100.00

 eigenvalues of (default mixing * dielectric matrix)
  average eigenvalue GAMMA=   4.2115
 36.6271 10.4786  4.5439  2.6279  2.6279  1.9862  1.2266  1.2266  0.8719  0.8719
  0.8448  0.8448  0.7066  0.6693  0.6105  0.6188

 Free energy of the ion-electron system (eV)
  ---------------------------------------------------
  alpha Z        PSCENC =        76.95909245
  Ewald energy   TEWEN  =    213080.70530516
  -Hartree energ DENC   =   -220563.64731445
  -exchange      EXHF   =         0.00000000
  -V(xc)+E(xc)   XCENC  =       853.75231916
  PAW double counting   =     25820.23548069   -25862.30868313
  entropy T*S    EENTRO =         0.00000000
  eigenvalues    EBANDS =     -3089.36327371
  atomic energy  EATOM  =      9123.59704331
  Solvation  Ediel_sol  =         0.00000000
  ---------------------------------------------------
  free energy    TOTEN  =      -560.07003052 eV

  energy without entropy =     -560.07003052  energy(sigma->0) =     -560.07003052


--------------------------------------------------------------------------------------------------------




--------------------------------------- Iteration      1(  22)  ---------------------------------------


    POTLOK:  cpu time    0.9393: real time    0.9519
    SETDIJ:  cpu time    0.0163: real time    0.0170
     EDDAV:  cpu time  287.4168: real time  288.1035
 BZINTS: Fermi energy: -3.682655;248.000000 electrons
         Band energy:***********;  BLOECHL correction:  0.000000
       DOS:  cpu time    0.0088: real time    0.0088
    CHARGE:  cpu time   13.1713: real time   13.2022
    MIXING:  cpu time    0.0368: real time    0.0369
    --------------------------------------------
      LOOP:  cpu time  301.5892: real time  302.3203

 eigenvalue-minimisations  : 16308
 total energy-change (2. order) :-0.1877384E+00  (-0.1399583E-02)
 number of electron     247.9999999 magnetization       0.0520148
 augmentation part        5.8752605 magnetization       0.0519237

 Broyden mixing:
  rms(total) = 0.20958E-01    rms(broyden)= 0.20958E-01
  rms(prec ) = 0.22144E-01
  weight for this iteration     100.00

 eigenvalues of (default mixing * dielectric matrix)
  average eigenvalue GAMMA=   4.2165
 39.1233 10.6382  4.8171  2.7236  2.7236  2.0412  1.3937  1.1124  1.1124  0.8828
  0.8828  0.8174  0.8174  0.7007  0.6652  0.6095  0.6192

 Free energy of the ion-electron system (eV)
  ---------------------------------------------------
  alpha Z        PSCENC =        76.95909245
  Ewald energy   TEWEN  =    213080.70530516
  -Hartree energ DENC   =   -220577.05232782
  -exchange      EXHF   =         0.00000000
  -V(xc)+E(xc)   XCENC  =       853.44337032
  PAW double counting   =     25782.96706621   -25825.02294644
  entropy T*S    EENTRO =         0.00000000
  eigenvalues    EBANDS =     -3075.85437210
  atomic energy  EATOM  =      9123.59704331
  Solvation  Ediel_sol  =         0.00000000
  ---------------------------------------------------
  free energy    TOTEN  =      -560.25776892 eV

  energy without entropy =     -560.25776892  energy(sigma->0) =     -560.25776892


--------------------------------------------------------------------------------------------------------




--------------------------------------- Iteration      1(  23)  ---------------------------------------


    POTLOK:  cpu time    0.8976: real time    0.9071
    SETDIJ:  cpu time    0.0142: real time    0.0142
     EDDAV:  cpu time  285.3547: real time  286.0401
 BZINTS: Fermi energy: -3.628673;248.000000 electrons
         Band energy:***********;  BLOECHL correction:  0.000000
       DOS:  cpu time    0.0080: real time    0.0080
    CHARGE:  cpu time   13.0294: real time   13.0600
    MIXING:  cpu time    0.0334: real time    0.0334
    --------------------------------------------
      LOOP:  cpu time  299.3373: real time  300.0629

 eigenvalue-minimisations  : 16128
 total energy-change (2. order) :-0.2699636E-01  (-0.4127716E-03)
 number of electron     247.9999999 magnetization       0.0142092
 augmentation part        5.8749875 magnetization       0.0141172

 Broyden mixing:
  rms(total) = 0.96473E-02    rms(broyden)= 0.96473E-02
  rms(prec ) = 0.10976E-01
  weight for this iteration     100.00

 eigenvalues of (default mixing * dielectric matrix)
  average eigenvalue GAMMA=   4.1296
 40.0429 10.7100  5.0024  2.9254  2.6681  2.1000  1.7054  1.1730  1.1730  0.9035
  0.9035  0.8335  0.8335  0.7758  0.6971  0.6575  0.6100  0.6191

 Free energy of the ion-electron system (eV)
  ---------------------------------------------------
  alpha Z        PSCENC =        76.95909245
  Ewald energy   TEWEN  =    213080.70530516
  -Hartree energ DENC   =   -220586.72376544
  -exchange      EXHF   =         0.00000000
  -V(xc)+E(xc)   XCENC  =       853.42320653
  PAW double counting   =     25788.40707448   -25830.46632897
  entropy T*S    EENTRO =         0.00000000
  eigenvalues    EBANDS =     -3066.18639280
  atomic energy  EATOM  =      9123.59704331
  Solvation  Ediel_sol  =         0.00000000
  ---------------------------------------------------
  free energy    TOTEN  =      -560.28476527 eV

  energy without entropy =     -560.28476527  energy(sigma->0) =     -560.28476527


--------------------------------------------------------------------------------------------------------




--------------------------------------- Iteration      1(  24)  ---------------------------------------


    POTLOK:  cpu time    0.8733: real time    0.8822
    SETDIJ:  cpu time    0.0140: real time    0.0140
     EDDAV:  cpu time  279.8801: real time  280.5519
 BZINTS: Fermi energy: -3.596155;248.000000 electrons
         Band energy:***********;  BLOECHL correction:  0.000000
       DOS:  cpu time    0.0090: real time    0.0090
    CHARGE:  cpu time   13.0038: real time   13.0343
    MIXING:  cpu time    0.0359: real time    0.0360
    --------------------------------------------
      LOOP:  cpu time  293.8160: real time  294.5274

 eigenvalue-minimisations  : 15852
 total energy-change (2. order) :-0.5960137E-01  (-0.1541166E-03)
 number of electron     247.9999999 magnetization       0.0052369
 augmentation part        5.8745746 magnetization       0.0053005

 Broyden mixing:
  rms(total) = 0.54990E-02    rms(broyden)= 0.54990E-02
  rms(prec ) = 0.67850E-02
  weight for this iteration     100.00

 eigenvalues of (default mixing * dielectric matrix)
  average eigenvalue GAMMA=   3.9955
 40.2732 10.7231  5.1062  3.0417  2.5958  2.2193  1.7892  1.1801  1.1801  1.0505
  0.9114  0.9114  0.8153  0.8153  0.7398  0.6792  0.6112  0.6203  0.6504

 Free energy of the ion-electron system (eV)
  ---------------------------------------------------
  alpha Z        PSCENC =        76.95909245
  Ewald energy   TEWEN  =    213080.70530516
  -Hartree energ DENC   =   -220594.08400704
  -exchange      EXHF   =         0.00000000
  -V(xc)+E(xc)   XCENC  =       853.38096267
  PAW double counting   =     25788.86362993   -25830.92540877
  entropy T*S    EENTRO =         0.00000000
  eigenvalues    EBANDS =     -3058.84098436
  atomic energy  EATOM  =      9123.59704331
  Solvation  Ediel_sol  =         0.00000000
  ---------------------------------------------------
  free energy    TOTEN  =      -560.34436664 eV

  energy without entropy =     -560.34436664  energy(sigma->0) =     -560.34436664


--------------------------------------------------------------------------------------------------------




--------------------------------------- Iteration      1(  25)  ---------------------------------------


    POTLOK:  cpu time    0.8693: real time    0.8853
    SETDIJ:  cpu time    0.0139: real time    0.0139
     EDDAV:  cpu time  287.7833: real time  288.4766
 BZINTS: Fermi energy: -3.553005;248.000000 electrons
         Band energy:***********;  BLOECHL correction:  0.000000
       DOS:  cpu time    0.0087: real time    0.0088
    CHARGE:  cpu time   13.7126: real time   13.7456
    MIXING:  cpu time    0.0400: real time    0.0401
    --------------------------------------------
      LOOP:  cpu time  302.4277: real time  303.1702

 eigenvalue-minimisations  : 16284
 total energy-change (2. order) :-0.1468136E-01  (-0.6926212E-04)
 number of electron     247.9999999 magnetization       0.0059398
 augmentation part        5.8743702 magnetization       0.0059592

 Broyden mixing:
  rms(total) = 0.37695E-02    rms(broyden)= 0.37695E-02
  rms(prec ) = 0.49147E-02
  weight for this iteration     100.00

 eigenvalues of (default mixing * dielectric matrix)
  average eigenvalue GAMMA=   3.8792
 40.3251 10.7260  5.1533  3.1357  2.4943  2.4943  1.8458  1.4204  1.1124  1.1124
  0.9922  0.9281  0.9281  0.8265  0.8265  0.7144  0.6757  0.6110  0.6224  0.6383

 Free energy of the ion-electron system (eV)
  ---------------------------------------------------
  alpha Z        PSCENC =        76.95909245
  Ewald energy   TEWEN  =    213080.70530516
  -Hartree energ DENC   =   -220599.17266796
  -exchange      EXHF   =         0.00000000
  -V(xc)+E(xc)   XCENC  =       853.37759733
  PAW double counting   =     25788.14425306   -25830.20538243
  entropy T*S    EENTRO =         0.00000000
  eigenvalues    EBANDS =     -3053.76428893
  atomic energy  EATOM  =      9123.59704331
  Solvation  Ediel_sol  =         0.00000000
  ---------------------------------------------------
  free energy    TOTEN  =      -560.35904800 eV

  energy without entropy =     -560.35904800  energy(sigma->0) =     -560.35904800


--------------------------------------------------------------------------------------------------------




--------------------------------------- Iteration      1(  26)  ---------------------------------------


    POTLOK:  cpu time    0.9345: real time    0.9438
    SETDIJ:  cpu time    0.0154: real time    0.0155
     EDDAV:  cpu time  279.9150: real time  280.5778
 BZINTS: Fermi energy: -3.546068;248.000000 electrons
         Band energy:***********;  BLOECHL correction:  0.000000
       DOS:  cpu time    0.0133: real time    0.0134
    CHARGE:  cpu time   12.9714: real time   13.0019
    MIXING:  cpu time    0.0373: real time    0.0453
    --------------------------------------------
      LOOP:  cpu time  293.8869: real time  294.5977

 eigenvalue-minimisations  : 15828
 total energy-change (2. order) :-0.4690865E-02  (-0.4363864E-04)
[...]
   C          35.077          3.424         10.411          0.868
   C          34.980          3.423         10.397          0.866
   C          34.396          3.413         10.310          0.859
   C          35.631          3.433         10.493          0.874
   C          34.680          3.418         10.352          0.863
   C          34.250          3.411         10.288          0.857
   C          33.830          3.404         10.224          0.852
   C          34.189          3.410         10.279          0.857
   C          33.732          3.402         10.210          0.851
   C          33.984          3.406         10.248          0.854
   C          34.491          3.415         10.324          0.860
   C          33.933          3.406         10.240          0.853
   C          34.179          3.410         10.277          0.856
   C          34.179          3.410         10.277          0.856
   C          33.933          3.406         10.240          0.853
   C          34.491          3.415         10.324          0.860
   C          33.984          3.406         10.248          0.854
   C          33.853          3.404         10.228          0.852
   C          33.877          3.405         10.231          0.853
   C          33.876          3.405         10.231          0.853
   C          33.853          3.404         10.228          0.852
   C          33.984          3.406         10.248          0.854
   C          34.491          3.415         10.324          0.860
   C          33.933          3.406         10.240          0.853
   C          34.179          3.410         10.277          0.856
   C          34.427          3.414         10.314          0.860
   C          34.242          3.411         10.287          0.857
   C          34.242          3.411         10.287          0.857
   C          34.427          3.414         10.314          0.860

  IVDW = 202
  VDW_RADIUS =    50.000 A
  VDW_SR =     0.830
  VDW_D =     6.000
  SCSRAD =   120.000 A
  LSCSGRAD = T
  LSCALER0 = T
  Edisp (eV):   -7.03929
    FORVDW:  cpu time  153.7589: real time  154.1766

  FORCE on cell =-STRESS in cart. coord.  units (eV):
  Direction    XX          YY          ZZ          XY          YZ          ZX
  --------------------------------------------------------------------------------------
  Alpha Z    76.95909    76.95909    76.95909
  Ewald  221070.86711221077.25010************    -5.58014  -567.43797  -908.48905
  Hartree220086.48227220109.79161************   -20.19069  -451.54501  -709.30319
  E(xc)    -921.24244  -921.13461  -951.81052    -0.09325    -0.53046    -0.91464
  Local  ************************445505.63431    30.05155  1008.68116  1600.01270
  n-local  -214.80937  -213.97544  -199.65647    -0.72091     0.32757     0.56479
  augment   -23.87317   -23.84203   -22.04815    -0.02681     0.04521     0.07763
  Kinetic  3731.99178  3735.53079  4237.42645    -3.05557    10.28868    17.76494
  Fock        0.00000     0.00000     0.00000     0.00000     0.00000     0.00000
  vdW        -7.42966    -7.55459    -4.30430     0.10795     0.03210     0.05508
  -------------------------------------------------------------------------------------
  Total       0.14364    -0.43269     0.22765     0.49213    -0.13873    -0.23173
  in kB       0.05609    -0.16896     0.08889     0.19217    -0.05417    -0.09049
  external pressure =       -0.01 kB  Pullay stress =        0.00 kB


 VOLUME and BASIS-vectors are now :
 -----------------------------------------------------------------------------
  energy-cutoff  :      850.00
  volume of cell :     4103.11
      direct lattice vectors                 reciprocal lattice vectors
     9.831746971  0.154921399 -0.012301623     0.102681583 -0.061569245  0.000077168
     5.056664567  8.433192708 -0.013099929    -0.001886186  0.119710184  0.000094558
    -0.061791620 -0.040435843 49.959113637     0.000024789  0.000016229  0.020016412

  length of vectors
     9.832975159  9.833044666 49.959168214     0.119725876  0.119725080  0.020016434


 FORCES acting on ions
    electron-ion (+dipol)            ewald-force                    non-local-force                 convergence-correction
 -----------------------------------------------------------------------------------------------
   0.825E+01 0.481E+01 0.514E+03   -.842E+01 -.490E+01 -.514E+03   0.129E+00 0.738E-01 0.218E-01   0.119E-05 0.681E-06 -.159E-06
   0.620E+01 0.362E+01 0.526E+03   -.630E+01 -.368E+01 -.526E+03   0.121E+00 0.701E-01 0.185E-01   -.349E-06 -.207E-06 0.551E-07
   0.814E+01 0.464E+01 -.466E+03   -.817E+01 -.466E+01 0.466E+03   0.297E-03 0.229E-03 -.168E+00   0.774E-06 0.443E-06 0.911E-06
   0.457E+01 0.258E+01 -.421E+03   -.485E+01 -.275E+01 0.420E+03   0.288E+00 0.166E+00 0.824E+00   0.197E-06 0.110E-06 0.773E-06
   -.127E+02 -.251E+02 0.521E+03   0.132E+02 0.257E+02 -.521E+03   -.571E+00 -.603E+00 0.142E+00   -.248E-06 0.265E-06 0.365E-06
   -.863E+02 0.252E+00 0.514E+03   0.866E+02 -.181E+00 -.514E+03   -.355E+00 -.574E-01 -.433E-02   0.959E-06 0.120E-06 0.753E-06
   -.548E+01 0.126E+01 -.440E+03   0.534E+01 -.122E+01 0.440E+03   0.117E+00 -.691E-01 -.970E-01   0.393E-06 0.266E-06 0.631E-06
   -.190E+02 -.609E+01 -.388E+03   0.191E+02 0.674E+01 0.388E+03   -.666E-01 -.652E+00 -.806E-01   -.374E-07 0.130E-06 0.578E-06
   -.906E+01 0.189E+02 0.493E+03   0.931E+01 -.193E+02 -.492E+03   -.269E+00 0.369E+00 -.132E+00   0.202E-06 -.900E-06 0.785E-06
   0.204E+02 0.167E+02 0.472E+03   -.208E+02 -.169E+02 -.472E+03   0.480E+00 0.207E+00 0.967E-01   0.124E-05 -.959E-06 0.102E-05
   -.247E+02 -.934E+01 -.471E+03   0.250E+02 0.963E+01 0.472E+03   -.420E+00 -.312E+00 -.967E-01   -.181E-06 -.142E-05 0.280E-06
   -.118E+02 0.172E+02 -.493E+03   0.120E+02 -.176E+02 0.492E+03   -.185E+00 0.417E+00 0.132E+00   0.788E-06 -.356E-07 0.438E-06
   0.120E+02 0.904E+01 0.503E+03   -.121E+02 -.918E+01 -.503E+03   0.157E+00 0.118E+00 0.174E+00   0.186E-06 -.740E-06 0.204E-06
   0.109E+02 0.910E+01 0.502E+03   -.110E+02 -.935E+01 -.502E+03   0.189E+00 0.244E+00 -.335E+00   0.633E-06 -.361E-06 0.869E-07
   0.143E+02 0.133E+02 -.485E+03   -.142E+02 -.136E+02 0.485E+03   -.352E-01 0.341E+00 -.819E-01   0.853E-06 -.530E-06 0.910E-06
   0.143E+02 -.463E+00 -.483E+03   -.146E+02 0.269E+00 0.483E+03   0.228E+00 0.174E+00 0.117E+00   0.620E-06 -.840E-06 0.104E-05
   -.281E+02 0.166E+01 0.521E+03   0.289E+02 -.148E+01 -.521E+03   -.808E+00 -.192E+00 0.141E+00   0.112E-06 -.357E-06 0.366E-06
   -.430E+02 -.748E+02 0.514E+03   0.433E+02 0.750E+02 -.514E+03   -.227E+00 -.278E+00 -.435E-02   0.584E-06 0.763E-06 0.753E-06
   -.161E+01 -.545E+01 -.440E+03   0.157E+01 0.531E+01 0.440E+03   -.486E-03 0.136E+00 -.968E-01   0.431E-06 0.204E-06 0.630E-06
   -.147E+02 -.134E+02 -.388E+03   0.153E+02 0.132E+02 0.388E+03   -.598E+00 0.268E+00 -.818E-01   0.948E-07 -.104E-06 0.580E-06
   0.181E+02 0.105E+02 0.201E+03   -.192E+02 -.111E+02 -.201E+03   0.112E+01 0.649E+00 -.120E+00   -.277E-06 -.161E-06 0.799E-06
   -.181E+02 -.105E+02 -.201E+03   0.192E+02 0.111E+02 0.201E+03   -.112E+01 -.649E+00 0.120E+00   -.130E-06 -.762E-07 0.951E-06
   0.147E+02 0.135E+02 0.388E+03   -.153E+02 -.132E+02 -.388E+03   0.598E+00 -.268E+00 0.818E-01   -.302E-06 -.128E-05 0.133E-05
   0.161E+01 0.544E+01 0.440E+03   -.157E+01 -.530E+01 -.440E+03   0.482E-03 -.136E+00 0.967E-01   -.693E-06 -.709E-06 0.698E-06
   0.430E+02 0.748E+02 -.514E+03   -.433E+02 -.750E+02 0.514E+03   0.227E+00 0.278E+00 0.415E-02   -.137E-07 0.297E-06 0.373E-06
   0.281E+02 -.166E+01 -.521E+03   -.289E+02 0.148E+01 0.521E+03   0.808E+00 0.192E+00 -.141E+00   -.186E-06 0.677E-06 0.599E-06
   -.551E+01 -.525E+00 0.502E+03   0.555E+01 0.833E+00 -.502E+03   -.626E-01 -.297E+00 0.466E+00   -.965E-07 -.216E-06 0.145E-06
   -.313E+01 0.478E+01 0.503E+03   0.331E+01 -.487E+01 -.503E+03   -.157E+00 0.860E-01 -.207E-01   0.919E-07 0.799E-06 0.113E-06
   0.313E+01 -.478E+01 -.503E+03   -.331E+01 0.487E+01 0.503E+03   0.157E+00 -.860E-01 0.206E-01   -.187E-06 -.629E-06 0.899E-06
   0.551E+01 0.526E+00 -.502E+03   -.555E+01 -.834E+00 0.502E+03   0.626E-01 0.298E+00 -.466E+00   -.194E-06 0.238E-06 0.819E-06
   0.118E+02 -.172E+02 0.493E+03   -.120E+02 0.176E+02 -.492E+03   0.185E+00 -.417E+00 -.132E+00   -.687E-06 0.618E-06 0.785E-06
   0.247E+02 0.934E+01 0.471E+03   -.250E+02 -.962E+01 -.472E+03   0.420E+00 0.312E+00 0.967E-01   -.210E-06 0.155E-05 0.103E-05
   -.204E+02 -.167E+02 -.472E+03   0.208E+02 0.169E+02 0.472E+03   -.480E+00 -.207E+00 -.967E-01   -.132E-05 0.551E-06 0.281E-06
   0.906E+01 -.189E+02 -.493E+03   -.931E+01 0.193E+02 0.492E+03   0.269E+00 -.369E+00 0.132E+00   0.361E-06 0.701E-06 0.439E-06
   0.190E+02 0.609E+01 0.388E+03   -.191E+02 -.674E+01 -.388E+03   0.665E-01 0.652E+00 0.806E-01   -.126E-05 0.384E-06 0.133E-05
   0.548E+01 -.126E+01 0.440E+03   -.534E+01 0.122E+01 -.440E+03   -.117E+00 0.690E-01 0.969E-01   -.968E-06 -.242E-06 0.701E-06
   0.863E+02 -.251E+00 -.514E+03   -.866E+02 0.180E+00 0.514E+03   0.355E+00 0.575E-01 0.413E-02   0.255E-06 -.168E-06 0.374E-06
   0.127E+02 0.251E+02 -.521E+03   -.132E+02 -.257E+02 0.521E+03   0.571E+00 0.603E+00 -.142E+00   0.489E-06 -.506E-06 0.599E-06
   -.457E+01 -.258E+01 0.421E+03   0.486E+01 0.275E+01 -.420E+03   -.288E+00 -.166E+00 -.824E+00   -.540E-06 -.306E-06 0.683E-06
   -.814E+01 -.464E+01 0.466E+03   0.817E+01 0.466E+01 -.466E+03   -.418E-03 -.285E-03 0.168E+00   -.677E-06 -.377E-06 0.199E-06
   -.620E+01 -.362E+01 -.526E+03   0.630E+01 0.368E+01 0.526E+03   -.121E+00 -.701E-01 -.187E-01   0.242E-06 0.137E-06 0.880E-06
   -.826E+01 -.481E+01 -.514E+03   0.842E+01 0.491E+01 0.514E+03   -.128E+00 -.737E-01 -.217E-01   -.111E-05 -.637E-06 0.112E-05
   -.143E+02 0.464E+00 0.483E+03   0.146E+02 -.270E+00 -.483E+03   -.228E+00 -.174E+00 -.117E+00   -.308E-06 0.772E-06 0.594E-07
   -.143E+02 -.133E+02 0.485E+03   0.142E+02 0.136E+02 -.485E+03   0.351E-01 -.341E+00 0.819E-01   -.232E-06 0.592E-06 0.209E-06
   -.109E+02 -.910E+01 -.502E+03   0.110E+02 0.935E+01 0.502E+03   -.189E+00 -.244E+00 0.335E+00   -.889E-06 0.340E-06 0.926E-06
   -.120E+02 -.904E+01 -.503E+03   0.122E+02 0.917E+01 0.503E+03   -.157E+00 -.118E+00 -.174E+00   -.438E-06 0.702E-06 0.787E-06
   0.138E+02 0.592E+01 0.503E+03   -.140E+02 -.599E+01 -.503E+03   0.181E+00 0.769E-01 0.174E+00   -.546E-06 0.528E-06 0.205E-06
   0.133E+02 0.490E+01 0.502E+03   -.136E+02 -.493E+01 -.502E+03   0.306E+00 0.420E-01 -.334E+00   0.298E-08 0.723E-06 0.880E-07
   0.187E+02 0.561E+01 -.485E+03   -.190E+02 -.542E+01 0.485E+03   0.278E+00 -.202E+00 -.815E-01   -.425E-07 0.100E-05 0.911E-06
   0.682E+01 0.126E+02 -.483E+03   -.710E+01 -.127E+02 0.483E+03   0.265E+00 0.110E+00 0.116E+00   -.417E-06 0.958E-06 0.104E-05
   -.325E+01 -.444E+01 0.502E+03   0.353E+01 0.432E+01 -.503E+03   -.289E+00 0.946E-01 0.466E+00   -.243E-06 0.172E-07 0.147E-06
   0.254E+01 -.503E+01 0.504E+03   -.253E+01 0.523E+01 -.504E+03   -.376E-02 -.178E+00 -.199E-01   0.739E-06 -.330E-06 0.113E-06
   -.254E+01 0.503E+01 -.504E+03   0.253E+01 -.523E+01 0.504E+03   0.377E-02 0.178E+00 0.198E-01   -.646E-06 0.158E-06 0.900E-06
   0.325E+01 0.444E+01 -.502E+03   -.353E+01 -.432E+01 0.503E+03   0.289E+00 -.946E-01 -.466E+00   0.104E-06 -.286E-06 0.821E-06
   -.681E+01 -.126E+02 0.483E+03   0.710E+01 0.127E+02 -.483E+03   -.265E+00 -.110E+00 -.117E+00   0.509E-06 -.642E-06 0.601E-07
   -.187E+02 -.560E+01 0.485E+03   0.190E+02 0.542E+01 -.485E+03   -.278E+00 0.202E+00 0.815E-01   0.404E-06 -.487E-06 0.208E-06
   -.133E+02 -.490E+01 -.502E+03   0.136E+02 0.493E+01 0.502E+03   -.306E+00 -.420E-01 0.334E+00   -.160E-06 -.938E-06 0.925E-06
   -.138E+02 -.593E+01 -.503E+03   0.140E+02 0.599E+01 0.503E+03   -.181E+00 -.769E-01 -.174E+00   0.383E-06 -.728E-06 0.787E-06
   0.142E+02 0.822E+01 0.478E+03   -.142E+02 -.822E+01 -.477E+03   -.531E-01 -.306E-01 -.460E+00   0.128E-06 0.787E-07 -.128E-08
   0.493E+01 0.289E+01 0.504E+03   -.504E+01 -.295E+01 -.505E+03   0.138E+00 0.795E-01 0.204E+00   -.426E-06 -.246E-06 -.109E-06
   -.493E+01 -.289E+01 -.504E+03   0.504E+01 0.295E+01 0.504E+03   -.138E+00 -.795E-01 -.204E+00   0.141E-06 0.924E-07 0.107E-05
   -.142E+02 -.822E+01 -.478E+03   0.142E+02 0.822E+01 0.477E+03   0.531E-01 0.305E-01 0.460E+00   0.806E-07 0.502E-07 0.114E-05
 -----------------------------------------------------------------------------------------------
   -.115E-03 -.227E-04 0.175E-03   0.288E-12 0.124E-12 0.625E-12   0.234E-04 -.381E-04 -.411E-03   -.819E-06 -.469E-06 0.364E-04
 
 
 POSITION                                       TOTAL-FORCE (eV/Angst)
 -----------------------------------------------------------------------------------
     14.79634      8.53252     19.12525        -0.035601     -0.021400     -0.059239
      1.11051      0.63806     19.12293         0.020382      0.012835     -0.034552
      1.17427      0.67559     22.62769        -0.028782     -0.016176     -0.061706
      2.38363      1.37318     22.46983         0.001242      0.000325     -0.056752
      1.23731      2.02716     19.15396        -0.019042     -0.012903     -0.021513
      2.56669      2.50608     19.22711        -0.006398      0.021643     -0.005712
      2.42943      2.78497     22.47416        -0.015459     -0.037574     -0.028944
      3.63502      3.47468     22.23218         0.015688      0.005584     -0.030680
      2.60598      3.99000     19.30456         0.008959     -0.040622     -0.016391
      3.79054      4.82611     19.40958         0.033319      0.003331     -0.007606
      3.79501      4.82937     22.53865        -0.019354     -0.027614      0.007607
      5.11182      5.43620     22.64365         0.030798     -0.028236      0.016533
      3.75196      6.24609     19.23466        -0.005641     -0.015579     -0.051367
      4.96914      6.97505     19.19456         0.009684     -0.002714     -0.049157
      5.04476      6.92503     22.68104        -0.014629      0.017574     -0.006460
      6.23600      7.69043     22.68256        -0.001380     -0.011496     -0.035030
      2.37641      0.05235     19.15445        -0.019560     -0.010669     -0.021746
      3.45658      0.96333     19.22742         0.015231     -0.016415     -0.005861
      3.62861      0.70591     22.47420        -0.040157      0.005672     -0.028715
      4.82931      1.40414     22.23243         0.012705      0.010717     -0.030707
      5.20651      3.00098     20.36370         0.054545      0.031446     -0.027237
      4.66608      2.68959     21.58503        -0.054498     -0.031418      0.027157
      5.04327      4.28643     19.71629        -0.012868     -0.010886      0.030774
      6.24397      4.98466     19.47455         0.040199     -0.005414      0.028638
      6.41600      4.72723     22.72134        -0.015062      0.016510      0.005799
      7.49618      5.63821     22.79432         0.019366      0.010451      0.021656
      6.22836      6.35880     19.23883        -0.014194      0.016151     -0.001469
      7.45733      7.08527     19.19225         0.017437     -0.005016      0.008410
      7.47192      7.03848     22.74341        -0.017513      0.005145     -0.008471
      8.70089      7.76496     22.69678         0.014230     -0.016197      0.001479
      4.76076      0.25437     19.30507        -0.030776      0.028249     -0.016540
      6.07757      0.86120     19.41003         0.019363      0.027628     -0.007553
      6.08204      0.86445     22.53909        -0.033325     -0.003309      0.007656
      7.26660      1.70056     22.64416        -0.008924      0.040615      0.016380
      6.23757      2.21588     19.71655        -0.015906     -0.005658      0.030735
      7.44316      2.90560     19.47460         0.015680      0.037485      0.028858
      7.30589      3.18448     22.72166         0.006519     -0.021545      0.005641
      8.63528      3.66341     22.79482         0.018855      0.012780      0.021407
      7.48896      4.31739     19.47896        -0.001013     -0.000195      0.056692
      8.69832      5.01498     19.32112         0.028507      0.016067      0.061688
      8.76208      5.05251     22.82582        -0.020542     -0.012877      0.034497
      9.96465      5.74616     22.79801         0.036162      0.021692      0.059294
      8.69325      6.43333     19.25312         0.001592      0.011474      0.034980
      9.88449      7.19873     19.25459         0.014508     -0.017626      0.006444
      9.96011      7.14870     22.74098        -0.009914      0.002325      0.049297
     11.17729      7.87766     22.70086         0.005854      0.015692      0.051515
      7.28743      0.11683     19.23520        -0.016047      0.002457     -0.051329
      8.52786      0.80547     19.19492         0.002064      0.010952     -0.048784
      8.52180      0.89710     22.68178         0.007746     -0.021699     -0.006608
      9.78078      1.54505     22.68343        -0.010033      0.004486     -0.035351
      8.62485      2.20407     19.23886         0.006791     -0.021035     -0.000981
      9.86906      2.90415     19.19221         0.004289      0.018408      0.008937
      9.83528      2.94133     22.74428        -0.004288     -0.018460     -0.009016
     11.07949      3.64142     22.69758        -0.006791      0.021043      0.000967
      9.92355      4.30043     19.25306         0.010161     -0.004368      0.035281
     11.18253      4.94839     19.25466        -0.007860      0.021647      0.006585
     11.17647      5.04002     22.74143        -0.002512     -0.010896      0.048914
     12.41690      5.72866     22.70112         0.016240     -0.002355      0.051473
     11.13724      6.42182     19.25362        -0.045248     -0.026085     -0.010143
     12.35208      7.12259     19.19741         0.035415      0.020631     -0.047116
     12.40892      7.15609     22.72579        -0.035536     -0.020700      0.047262
     13.62375      7.85686     22.66967         0.045323      0.026121      0.010178
 -----------------------------------------------------------------------------------
    total drift:                               -0.000092     -0.000061     -0.000199


--------------------------------------------------------------------------------------------------------



  FREE ENERGIE OF THE ION-ELECTRON SYSTEM (eV)
  ---------------------------------------------------
  free  energy   TOTEN  =      -567.41383330 eV

  energy  without entropy=     -567.41383330  energy(sigma->0) =     -567.41383330
 


--------------------------------------------------------------------------------------------------------


    POTLOK:  cpu time    0.9464: real time    0.9514


--------------------------------------------------------------------------------------------------------


     LOOP+:  cpu time13548.4934: real time13581.6061
    4ORBIT:  cpu time    0.0000: real time    0.0000
 BZINTS: Fermi energy: -3.493903;248.000000 electrons
         Band energy:***********;  BLOECHL correction:  0.000000

 total amount of memory used by VASP MPI-rank0   827248. kBytes
=======================================================================

   base      :      30000. kBytes
   nonl-proj :      65638. kBytes
   fftplans  :      41100. kBytes
   grid      :      97443. kBytes
   one-center:         49. kBytes
   wavefun   :     593018. kBytes
 
  
  
 General timing and accounting informations for this job:
 ========================================================
  
                  Total CPU time used (sec):    13659.994
                            User time (sec):    13206.993
                          System time (sec):      453.001
                         Elapsed time (sec):    13696.408
  
                   Maximum memory used (kb):      932996.
                   Average memory used (kb):           0.
  
                          Minor page faults:     19598678
                          Major page faults:          179
                 Voluntary context switches:         4582
