<?xml version="1.0" encoding="ISO-8859-1"?>
<modeling>
 <generator>
  <i name="program" type="string">vasp </i>
  <i name="version" type="string">5.4.4.18Apr17-6-g9f103f2a35  </i>
  <i name="subversion" type="string">(build Jan 12 2023 11:40:15) complex            parallel </i>
  <i name="platform" type="string">LinuxIFC </i>
  <i name="date" type="string">2024 01 13 </i>
  <i name="time" type="string">00:39:03 </i>
 </generator>
 <incar>
  <i type="int" name="ISTART">     0</i>
  <i type="string" name="PREC">accurate   (precision level)</i>
  <i type="string" name="ALGO"> Normal</i>
  <i type="int" name="ISPIN">     2</i>
  <i type="int" name="ICHARG">     2</i>
  <i type="int" name="NELM">   150</i>
  <i type="int" name="IBRION">    -1</i>
  <i name="EDIFF">      0.00000010</i>
  <i type="int" name="NSW">     1</i>
  <i type="int" name="ISYM">     0</i>
  <i name="ENCUT">    850.00000000</i>
  <i type="logical" name="LREAL"> F  </i>
  <i type="int" name="ISMEAR">    -5</i>
  <i name="SIGMA">      0.02000000</i>
  <i name="KSPACING">      0.15000000</i>
  <i type="logical" name="KGAMMA"> T  </i>
  <i type="logical" name="LWAVE"> F  </i>
  <i type="logical" name="LCHARG"> F  </i>
  <v type="int" name="KPOINT_BSE">    -1     0     0     0</v>
  <i type="int" name="NELM">   150</i>
 </incar>
 <structure name="primitive_cell" >
  <crystal>
   <varray name="basis" >
    <v>       9.83174697       0.15492140      -0.01230162 </v>
    <v>       5.05666457       8.43319271      -0.01309993 </v>
    <v>      -0.06179162      -0.04043584      49.95911364 </v>
   </varray>
   <i name="volume">   4103.11460630 </i>
   <varray name="rec_basis" >
    <v>       0.10268158      -0.06156925       0.00007717 </v>
    <v>      -0.00188619       0.11971018       0.00009456 </v>
    <v>       0.00002479       0.00001623       0.02001641 </v>
   </varray>
  </crystal>
  <varray name="positions" >
   <v>      -0.00455326      -0.00467116       0.38332420 </v>
   <v>       0.07621937       0.07609588       0.38281028 </v>
   <v>      -0.17245691       0.08215318       0.38443793 </v>
   <v>       0.08227197      -0.17257278       0.38444252 </v>
   <v>      -0.24860552       0.24940070       0.38534251 </v>
   <v>       0.24951612      -0.24871592       0.38535003 </v>
   <v>      -0.25742416       0.00205937       0.38520227 </v>
   <v>       0.00217451      -0.25753742       0.38520318 </v>
   <v>       0.24226819       0.00359612       0.38346304 </v>
   <v>       0.00371592       0.24214890       0.38345710 </v>
   <v>      -0.16395528       0.33085682       0.38445102 </v>
   <v>       0.33097687      -0.16407168       0.38445986 </v>
   <v>      -0.16872001      -0.16883674       0.38468506 </v>
   <v>      -0.41311781       0.33563221       0.39004326 </v>
   <v>       0.33574196      -0.41322162       0.39004627 </v>
   <v>       0.29709884       0.11061909       0.38496521 </v>
   <v>       0.11073808       0.29697992       0.38496213 </v>
   <v>      -0.42747102       0.09346652       0.38868374 </v>
   <v>       0.09357675      -0.42757956       0.38868242 </v>
   <v>       0.08072663       0.08079999       0.45296520 </v>
   <v>      -0.08308312      -0.08300666       0.45423059 </v>
   <v>       0.16857850      -0.08899484       0.45430280 </v>
   <v>      -0.08907136       0.16865533       0.45430844 </v>
   <v>       0.09338535      -0.17837397       0.45423049 </v>
   <v>      -0.17845109       0.09346273       0.45423363 </v>
   <v>       0.25546030      -0.49451941       0.39484387 </v>
   <v>      -0.49442514       0.25536263       0.39484508 </v>
   <v>      -0.24432269       0.49790835       0.38569303 </v>
   <v>       0.49802714      -0.24444122       0.38569833 </v>
   <v>      -0.25031106      -0.25042948       0.38576866 </v>
   <v>       0.16194303       0.16201211       0.44984677 </v>
   <v>      -0.16467424      -0.16459945       0.45531259 </v>
   <v>       0.19193482      -0.35673275       0.45345952 </v>
   <v>      -0.35680887       0.19200946       0.45346265 </v>
   <v>       0.33562920      -0.16936468       0.45554091 </v>
   <v>      -0.16943877       0.33570707       0.45555033 </v>
   <v>      -0.49533720      -0.49544824       0.39015466 </v>
   <v>       0.47467079       0.02329662       0.38654035 </v>
   <v>       0.02341468       0.47455419       0.38653733 </v>
   <v>      -0.41412039      -0.41423586       0.38703641 </v>
   <v>       0.33086387       0.07978533       0.44995421 </v>
   <v>       0.07972366       0.33093164       0.44995755 </v>
   <v>       0.09407637      -0.42690206       0.45131532 </v>
   <v>      -0.42697031       0.09414293       0.45131654 </v>
   <v>      -0.42677945      -0.15506207       0.38576967 </v>
   <v>      -0.15494291      -0.42689885       0.38576669 </v>
   <v>      -0.07597094      -0.33549519       0.45479565 </v>
   <v>      -0.33556839      -0.07589969       0.45479459 </v>
   <v>       0.41708987      -0.08472048       0.45464984 </v>
   <v>      -0.08478863       0.41716322       0.45465792 </v>
   <v>       0.42433759      -0.33703213       0.45653778 </v>
   <v>      -0.33710996       0.42441485       0.45654411 </v>
   <v>       0.36950657      -0.44405548       0.45503556 </v>
   <v>      -0.44413233       0.36958343       0.45503880 </v>
   <v>       0.35141575       0.35135261       0.40778606 </v>
   <v>       0.16103111       0.41120087       0.44515490 </v>
   <v>       0.41114516       0.16108350       0.44515596 </v>
   <v>       0.31518967       0.31521129       0.43221407 </v>
   <v>      -0.41566588      -0.16086357       0.45555569 </v>
   <v>      -0.16093729      -0.41558922       0.45556063 </v>
   <v>      -0.40961355      -0.40953220       0.45719023 </v>
   <v>      -0.32884147      -0.32876557       0.45667454 </v>
  </varray>
 </structure>
 <varray name="primitive_index" >
  <v type="int" >        1 </v>
  <v type="int" >        2 </v>
  <v type="int" >       48 </v>
  <v type="int" >       14 </v>
  <v type="int" >       51 </v>
  <v type="int" >       27 </v>
  <v type="int" >       47 </v>
  <v type="int" >       13 </v>
  <v type="int" >       17 </v>
  <v type="int" >        5 </v>
  <v type="int" >       52 </v>
  <v type="int" >       28 </v>
  <v type="int" >       60 </v>
  <v type="int" >       36 </v>
  <v type="int" >       24 </v>
  <v type="int" >       18 </v>
  <v type="int" >        6 </v>
  <v type="int" >       32 </v>
  <v type="int" >       10 </v>
  <v type="int" >        3 </v>
  <v type="int" >       62 </v>
  <v type="int" >       16 </v>
  <v type="int" >       50 </v>
  <v type="int" >       15 </v>
  <v type="int" >       49 </v>
  <v type="int" >       23 </v>
  <v type="int" >       35 </v>
  <v type="int" >       55 </v>
  <v type="int" >       43 </v>
  <v type="int" >       59 </v>
  <v type="int" >        4 </v>
  <v type="int" >       61 </v>
  <v type="int" >       12 </v>
  <v type="int" >       34 </v>
  <v type="int" >       29 </v>
  <v type="int" >       53 </v>
  <v type="int" >       39 </v>
  <v type="int" >       31 </v>
  <v type="int" >        9 </v>
  <v type="int" >       40 </v>
  <v type="int" >       19 </v>
  <v type="int" >        7 </v>
  <v type="int" >       11 </v>
  <v type="int" >       33 </v>
  <v type="int" >       44 </v>
  <v type="int" >       56 </v>
  <v type="int" >       58 </v>
  <v type="int" >       46 </v>
  <v type="int" >       30 </v>
  <v type="int" >       54 </v>
  <v type="int" >       26 </v>
  <v type="int" >       38 </v>
  <v type="int" >       25 </v>
  <v type="int" >       37 </v>
  <v type="int" >       21 </v>
  <v type="int" >        8 </v>
  <v type="int" >       20 </v>
  <v type="int" >       22 </v>
  <v type="int" >       45 </v>
  <v type="int" >       57 </v>
  <v type="int" >       41 </v>
  <v type="int" >       42 </v>
 </varray>
 <kpoints>
  <generation param="Gamma">
   <v type="int" name="divisions">       6        6        1 </v>
   <v name="usershift">      0.00000000       0.00000000       0.00000000 </v>
   <v name="genvec1">      0.16666667      -0.00000000       0.00000000 </v>
   <v name="genvec2">      0.00000000       0.16666667       0.00000000 </v>
   <v name="genvec3">      0.00000000      -0.00000000       1.00000000 </v>
   <v name="shift">      0.00000000       0.00000000       0.00000000 </v>
  </generation>
  <varray name="kpointlist" >
   <v>       0.00000000       0.00000000       0.00000000 </v>
   <v>       0.16666667      -0.00000000      -0.00000000 </v>
   <v>       0.33333333      -0.00000000       0.00000000 </v>
   <v>       0.50000000      -0.00000000       0.00000000 </v>
   <v>       0.00000000       0.16666667      -0.00000000 </v>
   <v>       0.16666667       0.16666667      -0.00000000 </v>
   <v>       0.33333333       0.16666667      -0.00000000 </v>
   <v>       0.50000000       0.16666667       0.00000000 </v>
   <v>      -0.33333333       0.16666667      -0.00000000 </v>
   <v>      -0.16666667       0.16666667      -0.00000000 </v>
   <v>       0.00000000       0.33333333       0.00000000 </v>
   <v>       0.16666667       0.33333333       0.00000000 </v>
   <v>       0.33333333       0.33333333       0.00000000 </v>
   <v>       0.50000000       0.33333333       0.00000000 </v>
   <v>      -0.33333333       0.33333333       0.00000000 </v>
   <v>      -0.16666667       0.33333333       0.00000000 </v>
   <v>      -0.00000000       0.50000000       0.00000000 </v>
   <v>       0.16666667       0.50000000       0.00000000 </v>
   <v>       0.33333333       0.50000000      -0.00000000 </v>
   <v>       0.50000000       0.50000000      -0.00000000 </v>
  </varray>
  <varray name="weights" >
   <v>       0.02777778 </v>
   <v>       0.05555556 </v>
   <v>       0.05555556 </v>
   <v>       0.02777778 </v>
   <v>       0.05555556 </v>
   <v>       0.05555556 </v>
   <v>       0.05555556 </v>
   <v>       0.05555556 </v>
   <v>       0.05555556 </v>
   <v>       0.05555556 </v>
   <v>       0.05555556 </v>
   <v>       0.05555556 </v>
   <v>       0.05555556 </v>
   <v>       0.05555556 </v>
   <v>       0.05555556 </v>
   <v>       0.05555556 </v>
   <v>       0.02777778 </v>
   <v>       0.05555556 </v>
   <v>       0.05555556 </v>
   <v>       0.02777778 </v>
  </varray>
  <varray name="tetrahedronlist"  type="int" >
   <v type="int" >        2        1        1        2        6 </v>
   <v type="int" >        2        1        1        5        6 </v>
   <v type="int" >        2        1        5        5        6 </v>
   <v type="int" >        2        1        2        2        6 </v>
   <v type="int" >        2        1        2        6        6 </v>
   <v type="int" >        2        1        5        6        6 </v>
   <v type="int" >        2        2        2        3        7 </v>
   <v type="int" >        2        2        2        6        7 </v>
   <v type="int" >        2        2        6        6        7 </v>
   <v type="int" >        2        2        3        3        7 </v>
   <v type="int" >        2        2        3        7        7 </v>
   <v type="int" >        2        2        6        7        7 </v>
   <v type="int" >        2        3        3        4        8 </v>
   <v type="int" >        2        3        3        7        8 </v>
   <v type="int" >        2        3        7        7        8 </v>
   <v type="int" >        2        3        4        4        8 </v>
   <v type="int" >        2        3        4        8        8 </v>
   <v type="int" >        2        3        7        8        8 </v>
   <v type="int" >        2        3        4        4        9 </v>
   <v type="int" >        2        4        4        8        9 </v>
   <v type="int" >        2        4        8        8        9 </v>
   <v type="int" >        2        3        3        4        9 </v>
   <v type="int" >        2        3        4        9        9 </v>
   <v type="int" >        2        4        8        9        9 </v>
   <v type="int" >        2        2        3        3       10 </v>
   <v type="int" >        2        3        3        9       10 </v>
   <v type="int" >        2        3        9        9       10 </v>
   <v type="int" >        2        2        2        3       10 </v>
   <v type="int" >        2        2        3       10       10 </v>
   <v type="int" >        2        3        9       10       10 </v>
   <v type="int" >        2        1        2        2        5 </v>
   <v type="int" >        2        2        2        5       10 </v>
   <v type="int" >        2        2        5       10       10 </v>
   <v type="int" >        2        1        1        2        5 </v>
   <v type="int" >        2        1        2        5        5 </v>
   <v type="int" >        2        2        5        5       10 </v>
   <v type="int" >        2        5        5        6       12 </v>
   <v type="int" >        2        5        5       11       12 </v>
   <v type="int" >        2        5       11       11       12 </v>
   <v type="int" >        2        5        6        6       12 </v>
   <v type="int" >        2        5        6       12       12 </v>
   <v type="int" >        2        5       11       12       12 </v>
   <v type="int" >        2        6        6        7       13 </v>
   <v type="int" >        2        6        6       12       13 </v>
   <v type="int" >        2        6       12       12       13 </v>
   <v type="int" >        2        6        7        7       13 </v>
   <v type="int" >        2        6        7       13       13 </v>
   <v type="int" >        2        6       12       13       13 </v>
   <v type="int" >        2        7        7        8       14 </v>
   <v type="int" >        2        7        7       13       14 </v>
   <v type="int" >        2        7       13       13       14 </v>
   <v type="int" >        2        7        8        8       14 </v>
   <v type="int" >        2        7        8       14       14 </v>
   <v type="int" >        2        7       13       14       14 </v>
   <v type="int" >        2        8        8        9       15 </v>
   <v type="int" >        2        8        8       14       15 </v>
   <v type="int" >        2        8       14       14       15 </v>
   <v type="int" >        2        8        9        9       15 </v>
   <v type="int" >        2        8        9       15       15 </v>
   <v type="int" >        2        8       14       15       15 </v>
   <v type="int" >        2        9        9       10       16 </v>
   <v type="int" >        2        9        9       15       16 </v>
   <v type="int" >        2        9       15       15       16 </v>
   <v type="int" >        2        9       10       10       16 </v>
   <v type="int" >        2        9       10       16       16 </v>
   <v type="int" >        2        9       15       16       16 </v>
   <v type="int" >        2        5       10       10       11 </v>
   <v type="int" >        2       10       10       11       16 </v>
   <v type="int" >        2       10       11       16       16 </v>
   <v type="int" >        2        5        5       10       11 </v>
   <v type="int" >        2        5       10       11       11 </v>
   <v type="int" >        2       10       11       11       16 </v>
   <v type="int" >        2       11       11       12       18 </v>
   <v type="int" >        2       11       11       17       18 </v>
   <v type="int" >        2       11       17       17       18 </v>
   <v type="int" >        2       11       12       12       18 </v>
   <v type="int" >        2       11       12       18       18 </v>
   <v type="int" >        2       11       17       18       18 </v>
   <v type="int" >        2       12       12       13       19 </v>
   <v type="int" >        2       12       12       18       19 </v>
   <v type="int" >        2       12       18       18       19 </v>
   <v type="int" >        2       12       13       13       19 </v>
   <v type="int" >        2       12       13       19       19 </v>
   <v type="int" >        2       12       18       19       19 </v>
   <v type="int" >        2       13       13       14       20 </v>
   <v type="int" >        2       13       13       19       20 </v>
   <v type="int" >        2       13       19       19       20 </v>
   <v type="int" >        2       13       14       14       20 </v>
   <v type="int" >        2       13       14       20       20 </v>
   <v type="int" >        2       13       19       20       20 </v>
   <v type="int" >        2       14       14       15       19 </v>
   <v type="int" >        2       14       14       19       20 </v>
   <v type="int" >        2       14       19       20       20 </v>
   <v type="int" >        2       14       15       15       19 </v>
   <v type="int" >        2       14       15       19       19 </v>
   <v type="int" >        2       14       19       19       20 </v>
   <v type="int" >        2       15       15       16       18 </v>
   <v type="int" >        2       15       15       18       19 </v>
   <v type="int" >        2       15       18       19       19 </v>
   <v type="int" >        2       15       16       16       18 </v>
   <v type="int" >        2       15       16       18       18 </v>
   <v type="int" >        2       15       18       18       19 </v>
   <v type="int" >        2       11       16       16       17 </v>
   <v type="int" >        2       16       16       17       18 </v>
   <v type="int" >        2       16       17       18       18 </v>
   <v type="int" >        2       11       11       16       17 </v>
   <v type="int" >        2       11       16       17       17 </v>
   <v type="int" >        2       16       17       17       18 </v>
  </varray>
  <i name="volumeweight">      0.00462963 </i>
 </kpoints>
 <parameters>
  <separator name="general" >
   <i type="string" name="SYSTEM">unknown system</i>
   <i type="logical" name="LCOMPAT"> F  </i>
  </separator>
  <separator name="electronic" >
   <i type="string" name="PREC">accura</i>
   <i name="ENMAX">    850.00000000</i>
   <i name="ENAUG">    644.87300000</i>
   <i name="EDIFF">      0.00000010</i>
   <i type="int" name="IALGO">    38</i>
   <i type="int" name="IWAVPR">    10</i>
   <i type="int" name="NBANDS">   192</i>
   <i name="NELECT">    248.00000000</i>
   <i type="int" name="TURBO">     0</i>
   <i type="int" name="IRESTART">     0</i>
   <i type="int" name="NREBOOT">     0</i>
   <i type="int" name="NMIN">     0</i>
   <i name="EREF">      0.00000000</i>
   <separator name="electronic smearing" >
    <i type="int" name="ISMEAR">    -5</i>
    <i name="SIGMA">      0.02000000</i>
    <i name="KSPACING">      0.15000000</i>
    <i type="logical" name="KGAMMA"> T  </i>
   </separator>
   <separator name="electronic projectors" >
    <i type="logical" name="LREAL"> F  </i>
    <v name="ROPT">      0.00000000</v>
    <i type="int" name="LMAXPAW">  -100</i>
    <i type="int" name="LMAXMIX">     2</i>
    <i type="logical" name="NLSPLINE"> F  </i>
   </separator>
   <separator name="electronic startup" >
    <i type="int" name="ISTART">     0</i>
    <i type="int" name="ICHARG">     2</i>
    <i type="int" name="INIWAV">     1</i>
   </separator>
   <separator name="electronic spin" >
    <i type="int" name="ISPIN">     2</i>
    <i type="logical" name="LNONCOLLINEAR"> F  </i>
    <v name="MAGMOM">      1.00000000      1.00000000      1.00000000      1.00000000      1.00000000      1.00000000      1.00000000      1.00000000      1.00000000      1.00000000      1.00000000      1.00000000      1.00000000      1.00000000      1.00000000      1.00000000      1.00000000      1.00000000      1.00000000      1.00000000
      1.00000000      1.00000000      1.00000000      1.00000000      1.00000000      1.00000000      1.00000000      1.00000000      1.00000000      1.00000000      1.00000000      1.00000000      1.00000000      1.00000000      1.00000000      1.00000000      1.00000000      1.00000000      1.00000000      1.00000000
      1.00000000      1.00000000      1.00000000      1.00000000      1.00000000      1.00000000      1.00000000      1.00000000      1.00000000      1.00000000      1.00000000      1.00000000      1.00000000      1.00000000      1.00000000      1.00000000      1.00000000      1.00000000      1.00000000      1.00000000
      1.00000000      1.00000000</v>
    <i name="NUPDOWN">     -1.00000000</i>
    <i type="logical" name="LSORBIT"> F  </i>
    <v name="SAXIS">      0.00000000      0.00000000      1.00000000</v>
    <i type="logical" name="LSPIRAL"> F  </i>
    <v name="QSPIRAL">      0.00000000      0.00000000      0.00000000</v>
    <i type="logical" name="LZEROZ"> F  </i>
   </separator>
   <separator name="electronic exchange-correlation" >
    <i type="logical" name="LASPH"> F  </i>
    <i type="logical" name="LMETAGGA"> F  </i>
   </separator>
   <separator name="electronic convergence" >
    <i type="int" name="NELM">   150</i>
    <i type="int" name="NELMDL">    -5</i>
    <i type="int" name="NELMIN">     2</i>
    <i name="ENINI">    850.00000000</i>
    <separator name="electronic convergence detail" >
     <i type="logical" name="LDIAG"> T  </i>
     <i type="logical" name="LSUBROT"> F  </i>
     <i name="WEIMIN">      0.00000000</i>
     <i name="EBREAK">      0.00000000</i>
     <i name="DEPER">      0.30000000</i>
     <i type="int" name="NRMM">     4</i>
     <i name="TIME">      0.40000000</i>
    </separator>
   </separator>
   <separator name="electronic mixer" >
    <i name="AMIX">      0.40000000</i>
    <i name="BMIX">      1.00000000</i>
    <i name="AMIN">      0.10000000</i>
    <i name="AMIX_MAG">      1.60000000</i>
    <i name="BMIX_MAG">      1.00000000</i>
    <separator name="electronic mixer details" >
     <i type="int" name="IMIX">     4</i>
     <i type="logical" name="MIXFIRST"> F  </i>
     <i type="int" name="MAXMIX">   -45</i>
     <i name="WC">    100.00000000</i>
     <i type="int" name="INIMIX">     1</i>
     <i type="int" name="MIXPRE">     1</i>
     <i type="int" name="MREMOVE">     5</i>
    </separator>
   </separator>
   <separator name="electronic dipolcorrection" >
    <i type="logical" name="LDIPOL"> F  </i>
    <i type="logical" name="LMONO"> F  </i>
    <i type="int" name="IDIPOL">     0</i>
    <i name="EPSILON">      1.00000000</i>
    <v name="DIPOL">   -100.00000000   -100.00000000   -100.00000000</v>
    <i name="EFIELD">      0.00000000</i>
   </separator>
  </separator>
  <separator name="grids" >
   <i type="int" name="NGX">    96</i>
   <i type="int" name="NGY">    96</i>
   <i type="int" name="NGZ">   480</i>
   <i type="int" name="NGXF">   192</i>
   <i type="int" name="NGYF">   192</i>
   <i type="int" name="NGZF">   960</i>
   <i type="logical" name="ADDGRID"> F  </i>
  </separator>
  <separator name="ionic" >
   <i type="int" name="NSW">     1</i>
   <i type="int" name="IBRION">    -1</i>
   <i type="int" name="MDALGO">     0</i>
   <i type="int" name="ISIF">     2</i>
   <i name="PSTRESS">      0.00000000</i>
   <i name="EDIFFG">      0.00000100</i>
   <i type="int" name="NFREE">     0</i>
   <i name="POTIM">      0.50000000</i>
   <i name="SMASS">     -3.00000000</i>
   <i name="SCALEE">      1.00000000</i>
  </separator>
  <separator name="ionic md" >
   <i name="TEBEG">      0.00010000</i>
   <i name="TEEND">      0.00010000</i>
   <i type="int" name="NBLOCK">     1</i>
   <i type="int" name="KBLOCK">     1</i>
   <i type="int" name="NPACO">   256</i>
   <i name="APACO">     16.00000000</i>
  </separator>
  <separator name="symmetry" >
   <i type="int" name="ISYM">     0</i>
   <i name="SYMPREC">      0.00001000</i>
  </separator>
  <separator name="dos" >
   <i type="int" name="LORBIT">     0</i>
   <v name="RWIGS">     -1.00000000</v>
   <i type="int" name="NEDOS">   301</i>
   <i name="EMIN">     10.00000000</i>
   <i name="EMAX">    -10.00000000</i>
   <i name="EFERMI">      0.00000000</i>
  </separator>
  <separator name="writing" >
   <i type="int" name="NWRITE">     2</i>
   <i type="logical" name="LWAVE"> F  </i>
   <i type="logical" name="LDOWNSAMPLE"> F  </i>
   <i type="logical" name="LCHARG"> F  </i>
   <i type="logical" name="LPARD"> F  </i>
   <i type="logical" name="LVTOT"> F  </i>
   <i type="logical" name="LVHAR"> F  </i>
   <i type="logical" name="LELF"> F  </i>
   <i type="logical" name="LOPTICS"> F  </i>
   <v name="STM">      0.00000000      0.00000000      0.00000000      0.00000000      0.00000000      0.00000000      0.00000000</v>
  </separator>
  <separator name="performance" >
   <i type="int" name="NPAR">     6</i>
   <i type="int" name="NSIM">     4</i>
   <i type="int" name="NBLK">    -1</i>
   <i type="logical" name="LPLANE"> T  </i>
   <i type="logical" name="LSCALAPACK"> F  </i>
   <i type="logical" name="LSCAAWARE"> F  </i>
   <i type="logical" name="LSCALU"> F  </i>
   <i type="logical" name="LASYNC"> F  </i>
   <i type="logical" name="LORBITALREAL"> F  </i>
  </separator>
  <separator name="miscellaneous" >
   <i type="int" name="IDIOT">     3</i>
   <i type="int" name="ISPECIAL">     0</i>
   <i type="logical" name="LMUSIC"> F  </i>
   <v name="POMASS">     12.01100000</v>
   <v name="DARWINR">      0.00000000</v>
   <v name="DARWINV">      1.00000000</v>
   <i type="logical" name="LCORR"> T  </i>
  </separator>
  <i type="logical" name="GGA_COMPAT"> T  </i>
  <i type="logical" name="LBERRY"> F  </i>
  <i type="int" name="ICORELEVEL">     0</i>
  <i type="logical" name="LDAU"> F  </i>
  <i type="int" name="I_CONSTRAINED_M">     0</i>
  <separator name="electronic exchange-correlation" >
   <i type="string" name="GGA">--</i>
   <i type="int" name="VOSKOWN">     0</i>
   <i type="logical" name="LHFCALC"> F  </i>
   <i type="string" name="PRECFOCK"></i>
   <i type="logical" name="LSYMGRAD"> F  </i>
   <i type="logical" name="LHFONE"> F  </i>
   <i type="logical" name="LRHFCALC"> F  </i>
   <i type="logical" name="LTHOMAS"> F  </i>
   <i type="logical" name="LMODELHF"> F  </i>
   <i name="ENCUT4O">     -1.00000000</i>
   <i type="int" name="EXXOEP">     0</i>
   <i type="int" name="FOURORBIT">     0</i>
   <i name="AEXX">      0.00000000</i>
   <i name="HFALPHA">      0.00000000</i>
   <i name="MCALPHA">      0.00000000</i>
   <i name="ALDAX">      1.00000000</i>
   <i name="AGGAX">      1.00000000</i>
   <i name="ALDAC">      1.00000000</i>
   <i name="AGGAC">      1.00000000</i>
   <i type="int" name="NKREDX">     1</i>
   <i type="int" name="NKREDY">     1</i>
   <i type="int" name="NKREDZ">     1</i>
   <i type="logical" name="SHIFTRED"> F  </i>
   <i type="logical" name="ODDONLY"> F  </i>
   <i type="logical" name="EVENONLY"> F  </i>
   <i type="int" name="LMAXFOCK">     0</i>
   <i type="int" name="NMAXFOCKAE">     0</i>
   <i type="logical" name="LFOCKAEDFT"> F  </i>
   <i name="HFSCREEN">      0.00000000</i>
   <i name="HFSCREENC">      0.00000000</i>
   <i type="int" name="NBANDSGWLOW">     0</i>
  </separator>
  <separator name="vdW DFT" >
   <i type="logical" name="LUSE_VDW"> F  </i>
   <i name="Zab_VDW">     -0.84910000</i>
   <i name="PARAM1">      0.12340000</i>
   <i name="PARAM2">      1.00000000</i>
   <i name="PARAM3">      0.00000000</i>
  </separator>
  <separator name="model GW" >
   <i type="int" name="MODEL_GW">     0</i>
   <i name="MODEL_EPS0">     39.70756071</i>
   <i name="MODEL_ALPHA">      1.00000000</i>
  </separator>
  <separator name="linear response parameters" >
   <i type="logical" name="LEPSILON"> F  </i>
   <i type="logical" name="LRPA"> F  </i>
   <i type="logical" name="LNABLA"> F  </i>
   <i type="logical" name="LVEL"> F  </i>
   <i type="int" name="KINTER">     0</i>
   <i name="CSHIFT">      0.10000000</i>
   <i name="OMEGAMAX">     -1.00000000</i>
   <i name="DEG_THRESHOLD">      0.00200000</i>
   <i name="RTIME">     -0.10000000</i>
   <i name="WPLASMAI">      0.00000000</i>
   <v name="DFIELD">      0.00000000      0.00000000      0.00000000</v>
   <v name="WPLASMA">      0.00000000      0.00000000      0.00000000      0.00000000      0.00000000      0.00000000      0.00000000      0.00000000      0.00000000</v>
  </separator>
  <separator name="orbital magnetization" >
   <i type="logical" name="NUCIND"> F  </i>
   <v name="MAGPOS">      0.00000000      0.00000000      0.00000000</v>
   <i type="logical" name="LNICSALL"> T  </i>
   <i type="logical" name="ORBITALMAG"> F  </i>
   <i type="logical" name="LMAGBLOCH"> F  </i>
   <i type="logical" name="LCHIMAG"> F  </i>
   <i type="logical" name="LGAUGE"> T  </i>
   <i type="int" name="MAGATOM">     0</i>
   <v name="MAGDIPOL">      0.00000000      0.00000000      0.00000000</v>
   <v name="AVECCONST">      0.00000000      0.00000000      0.00000000</v>
  </separator>
  <separator name="response functions" >
   <i type="logical" name="LADDER"> F  </i>
   <i type="logical" name="LRPAFORCE"> F  </i>
   <i type="logical" name="LFXC"> F  </i>
   <i type="logical" name="LHARTREE"> T  </i>
   <i type="int" name="IBSE">     0</i>
   <v type="int" name="KPOINT">    -1     0     0     0</v>
   <i type="logical" name="LTCTE"> F  </i>
   <i type="logical" name="LTETE"> F  </i>
   <i type="logical" name="LTRIPLET"> F  </i>
   <i type="logical" name="LFXCEPS"> F  </i>
   <i type="logical" name="LFXHEG"> F  </i>
   <i type="int" name="NATURALO">     2</i>
   <i type="logical" name="L2ORDER"> F  </i>
   <i type="logical" name="LMP2LT"> F  </i>
   <i type="logical" name="LUSEW"> F  </i>
   <i name="ENCUTGW">     -2.00000000</i>
   <i name="ENCUTGWSOFT">     -2.00000000</i>
   <i name="ENCUTLF">     -1.00000000</i>
   <i type="int" name="LMAXMP2">    -1</i>
   <i name="SCISSOR">      0.00000000</i>
   <i type="int" name="NOMEGA">     0</i>
   <i type="int" name="NOMEGAR">     0</i>
   <i type="int" name="NBANDSGW">    -1</i>
   <i type="int" name="NBANDSO">    -1</i>
   <i type="int" name="NBANDSV">    -1</i>
   <i type="int" name="NELM">   150</i>
   <i type="int" name="NELMHF">     1</i>
   <i type="int" name="DIM">     3</i>
   <i type="int" name="ANTIRES">     0</i>
   <i name="OMEGAMAX">    -30.00000000</i>
   <i name="OMEGAMIN">    -30.00000000</i>
   <i name="OMEGATL">   -200.00000000</i>
   <i type="int" name="OMEGAGRID">   140</i>
   <i name="CSHIFT">     -0.10000000</i>
   <i type="logical" name="SELFENERGY"> F  </i>
   <i type="logical" name="LSPECTRAL"> F  </i>
   <i type="logical" name="LSPECTRALGW"> F  </i>
   <i type="logical" name="LSINGLES"> F  </i>
   <i type="logical" name="LFERMIGW"> F  </i>
   <i type="logical" name="ODDONLYGW"> F  </i>
   <i type="logical" name="EVENONLYGW"> F  </i>
   <i type="int" name="NKREDLFX">     1</i>
   <i type="int" name="NKREDLFY">     1</i>
   <i type="int" name="NKREDLFZ">     1</i>
   <i type="int" name="MAXMEM">  2800</i>
   <i type="int" name="TELESCOPE">     0</i>
   <i type="int" name="TAUPAR">     1</i>
   <i type="int" name="OMEGAPAR">    -1</i>
   <i name="LAMBDA">      1.00000000</i>
  </separator>
  <separator name="External order field" >
   <i name="OFIELD_KAPPA">      0.00000000</i>
   <v name="OFIELD_K">      0.00000000      0.00000000      0.00000000</v>
   <i name="OFIELD_Q6_NEAR">      0.00000000</i>
   <i name="OFIELD_Q6_FAR">      0.00000000</i>
   <i name="OFIELD_A">      0.00000000</i>
  </separator>
 </parameters>
 <atominfo>
  <atoms>      62 </atoms>
  <types>       1 </types>
  <array name="atoms" >
   <dimension dim="1">ion</dimension>
   <field type="string">element</field>
   <field type="int">atomtype</field>
   <set>
    <rc><c>C </c><c>   1</c></rc>
    <rc><c>C </c><c>   1</c></rc>
    <rc><c>C </c><c>   1</c></rc>
    <rc><c>C </c><c>   1</c></rc>
    <rc><c>C </c><c>   1</c></rc>
    <rc><c>C </c><c>   1</c></rc>
    <rc><c>C </c><c>   1</c></rc>
    <rc><c>C </c><c>   1</c></rc>
    <rc><c>C </c><c>   1</c></rc>
    <rc><c>C </c><c>   1</c></rc>
    <rc><c>C </c><c>   1</c></rc>
    <rc><c>C </c><c>   1</c></rc>
    <rc><c>C </c><c>   1</c></rc>
    <rc><c>C </c><c>   1</c></rc>
    <rc><c>C </c><c>   1</c></rc>
    <rc><c>C </c><c>   1</c></rc>
    <rc><c>C </c><c>   1</c></rc>
    <rc><c>C </c><c>   1</c></rc>
    <rc><c>C </c><c>   1</c></rc>
    <rc><c>C </c><c>   1</c></rc>
    <rc><c>C </c><c>   1</c></rc>
    <rc><c>C </c><c>   1</c></rc>
    <rc><c>C </c><c>   1</c></rc>
    <rc><c>C </c><c>   1</c></rc>
    <rc><c>C </c><c>   1</c></rc>
    <rc><c>C </c><c>   1</c></rc>
    <rc><c>C </c><c>   1</c></rc>
    <rc><c>C </c><c>   1</c></rc>
    <rc><c>C </c><c>   1</c></rc>
    <rc><c>C </c><c>   1</c></rc>
    <rc><c>C </c><c>   1</c></rc>
    <rc><c>C </c><c>   1</c></rc>
    <rc><c>C </c><c>   1</c></rc>
    <rc><c>C </c><c>   1</c></rc>
    <rc><c>C </c><c>   1</c></rc>
    <rc><c>C </c><c>   1</c></rc>
    <rc><c>C </c><c>   1</c></rc>
    <rc><c>C </c><c>   1</c></rc>
    <rc><c>C </c><c>   1</c></rc>
    <rc><c>C </c><c>   1</c></rc>
    <rc><c>C </c><c>   1</c></rc>
    <rc><c>C </c><c>   1</c></rc>
    <rc><c>C </c><c>   1</c></rc>
    <rc><c>C </c><c>   1</c></rc>
    <rc><c>C </c><c>   1</c></rc>
    <rc><c>C </c><c>   1</c></rc>
    <rc><c>C </c><c>   1</c></rc>
    <rc><c>C </c><c>   1</c></rc>
    <rc><c>C </c><c>   1</c></rc>
    <rc><c>C </c><c>   1</c></rc>
    <rc><c>C </c><c>   1</c></rc>
    <rc><c>C </c><c>   1</c></rc>
    <rc><c>C </c><c>   1</c></rc>
    <rc><c>C </c><c>   1</c></rc>
    <rc><c>C </c><c>   1</c></rc>
    <rc><c>C </c><c>   1</c></rc>
    <rc><c>C </c><c>   1</c></rc>
    <rc><c>C </c><c>   1</c></rc>
    <rc><c>C </c><c>   1</c></rc>
    <rc><c>C </c><c>   1</c></rc>
    <rc><c>C </c><c>   1</c></rc>
    <rc><c>C </c><c>   1</c></rc>
   </set>
  </array>
  <array name="atomtypes" >
   <dimension dim="1">type</dimension>
   <field type="int">atomspertype</field>
   <field type="string">element</field>
   <field>mass</field>
   <field>valence</field>
   <field type="string">pseudopotential</field>
   <set>
    <rc><c>  62</c><c>C </c><c>     12.01100000</c><c>      4.00000000</c><c>  PAW_PBE C 08Apr2002                   </c></rc>
   </set>
  </array>
 </atominfo>
 <structure name="initialpos" >
  <crystal>
   <varray name="basis" >
    <v>       9.83174697       0.15492140      -0.01230162 </v>
    <v>       5.05666457       8.43319271      -0.01309993 </v>
    <v>      -0.06179162      -0.04043584      49.95911364 </v>
   </varray>
   <i name="volume">   4103.11460630 </i>
   <varray name="rec_basis" >
    <v>       0.10268158      -0.06156925       0.00007717 </v>
    <v>      -0.00188619       0.11971018       0.00009456 </v>
    <v>       0.00002479       0.00001623       0.02001641 </v>
   </varray>
  </crystal>
  <varray name="positions" >
   <v>       0.99544674       0.99532884       0.38332420 </v>
   <v>       0.07621937       0.07609588       0.38281028 </v>
   <v>       0.08072663       0.08079999       0.45296520 </v>
   <v>       0.16194303       0.16201211       0.44984677 </v>
   <v>       0.00371592       0.24214890       0.38345710 </v>
   <v>       0.11073808       0.29697992       0.38496213 </v>
   <v>       0.07972366       0.33093164       0.44995755 </v>
   <v>       0.16103111       0.41120087       0.44515490 </v>
   <v>       0.02341468       0.47455419       0.38653733 </v>
   <v>       0.09357675       0.57242044       0.38868242 </v>
   <v>       0.09407637       0.57309794       0.45131532 </v>
   <v>       0.19193482       0.64326725       0.45345952 </v>
   <v>       0.00217451       0.74246258       0.38520318 </v>
   <v>       0.08227197       0.82742722       0.38444252 </v>
   <v>       0.09338535       0.82162603       0.45423049 </v>
   <v>       0.16857850       0.91100516       0.45430280 </v>
   <v>       0.24226819       0.00359612       0.38346304 </v>
   <v>       0.29709884       0.11061909       0.38496521 </v>
   <v>       0.33086387       0.07978533       0.44995421 </v>
   <v>       0.41114516       0.16108350       0.44515596 </v>
   <v>       0.35141575       0.35135261       0.40778606 </v>
   <v>       0.31518967       0.31521129       0.43221407 </v>
   <v>       0.25546030       0.50548059       0.39484387 </v>
   <v>       0.33574196       0.58677838       0.39004627 </v>
   <v>       0.36950657       0.55594452       0.45503556 </v>
   <v>       0.42433759       0.66296787       0.45653778 </v>
   <v>       0.24951612       0.75128408       0.38535003 </v>
   <v>       0.33097687       0.83592832       0.38445986 </v>
   <v>       0.33562920       0.83063532       0.45554091 </v>
   <v>       0.41708987       0.91527952       0.45464984 </v>
   <v>       0.47467079       0.02329662       0.38654035 </v>
   <v>       0.57252898       0.09346652       0.38868374 </v>
   <v>       0.57302969       0.09414293       0.45131654 </v>
   <v>       0.64319113       0.19200946       0.45346265 </v>
   <v>       0.50557486       0.25536263       0.39484508 </v>
   <v>       0.58688219       0.33563221       0.39004326 </v>
   <v>       0.55586767       0.36958343       0.45503880 </v>
   <v>       0.66289004       0.42441485       0.45654411 </v>
   <v>       0.50466280       0.50455176       0.39015466 </v>
   <v>       0.58587961       0.58576414       0.38703641 </v>
   <v>       0.59038645       0.59046780       0.45719023 </v>
   <v>       0.67115853       0.67123443       0.45667454 </v>
   <v>       0.49802714       0.75555878       0.38569833 </v>
   <v>       0.57322055       0.84493793       0.38576967 </v>
   <v>       0.58433412       0.83913643       0.45555569 </v>
   <v>       0.66443161       0.92410031       0.45479459 </v>
   <v>       0.74257584       0.00205937       0.38520227 </v>
   <v>       0.82754309       0.08215318       0.38443793 </v>
   <v>       0.82154891       0.09346273       0.45423363 </v>
   <v>       0.91092864       0.16865533       0.45430844 </v>
   <v>       0.75139448       0.24940070       0.38534251 </v>
   <v>       0.83604472       0.33085682       0.38445102 </v>
   <v>       0.83056123       0.33570707       0.45555033 </v>
   <v>       0.91521137       0.41716322       0.45465792 </v>
   <v>       0.75567731       0.49790835       0.38569303 </v>
   <v>       0.84505709       0.57310115       0.38576669 </v>
   <v>       0.83906271       0.58441078       0.45556063 </v>
   <v>       0.92402906       0.66450481       0.45479565 </v>
   <v>       0.74968894       0.74957052       0.38576866 </v>
   <v>       0.83127999       0.83116326       0.38468506 </v>
   <v>       0.83532576       0.83540055       0.45531259 </v>
   <v>       0.91691688       0.91699334       0.45423059 </v>
  </varray>
  <varray name="velocities" >
   <v>       0.00000000       0.00000000       0.00000000 </v>
   <v>       0.00000000       0.00000000       0.00000000 </v>
   <v>       0.00000000       0.00000000       0.00000000 </v>
   <v>       0.00000000       0.00000000       0.00000000 </v>
   <v>       0.00000000       0.00000000       0.00000000 </v>
   <v>       0.00000000       0.00000000       0.00000000 </v>
   <v>       0.00000000       0.00000000       0.00000000 </v>
   <v>       0.00000000       0.00000000       0.00000000 </v>
   <v>       0.00000000       0.00000000       0.00000000 </v>
   <v>       0.00000000       0.00000000       0.00000000 </v>
   <v>       0.00000000       0.00000000       0.00000000 </v>
   <v>       0.00000000       0.00000000       0.00000000 </v>
   <v>       0.00000000       0.00000000       0.00000000 </v>
   <v>       0.00000000       0.00000000       0.00000000 </v>
   <v>       0.00000000       0.00000000       0.00000000 </v>
   <v>       0.00000000       0.00000000       0.00000000 </v>
   <v>       0.00000000       0.00000000       0.00000000 </v>
   <v>       0.00000000       0.00000000       0.00000000 </v>
   <v>       0.00000000       0.00000000       0.00000000 </v>
   <v>       0.00000000       0.00000000       0.00000000 </v>
   <v>       0.00000000       0.00000000       0.00000000 </v>
   <v>       0.00000000       0.00000000       0.00000000 </v>
   <v>       0.00000000       0.00000000       0.00000000 </v>
   <v>       0.00000000       0.00000000       0.00000000 </v>
   <v>       0.00000000       0.00000000       0.00000000 </v>
   <v>       0.00000000       0.00000000       0.00000000 </v>
   <v>       0.00000000       0.00000000       0.00000000 </v>
   <v>       0.00000000       0.00000000       0.00000000 </v>
   <v>       0.00000000       0.00000000       0.00000000 </v>
   <v>       0.00000000       0.00000000       0.00000000 </v>
   <v>       0.00000000       0.00000000       0.00000000 </v>
   <v>       0.00000000       0.00000000       0.00000000 </v>
   <v>       0.00000000       0.00000000       0.00000000 </v>
   <v>       0.00000000       0.00000000       0.00000000 </v>
   <v>       0.00000000       0.00000000       0.00000000 </v>
   <v>       0.00000000       0.00000000       0.00000000 </v>
   <v>       0.00000000       0.00000000       0.00000000 </v>
   <v>       0.00000000       0.00000000       0.00000000 </v>
   <v>       0.00000000       0.00000000       0.00000000 </v>
   <v>       0.00000000       0.00000000       0.00000000 </v>
   <v>       0.00000000       0.00000000       0.00000000 </v>
   <v>       0.00000000       0.00000000       0.00000000 </v>
   <v>       0.00000000       0.00000000       0.00000000 </v>
   <v>       0.00000000       0.00000000       0.00000000 </v>
   <v>       0.00000000       0.00000000       0.00000000 </v>
   <v>       0.00000000       0.00000000       0.00000000 </v>
   <v>       0.00000000       0.00000000       0.00000000 </v>
   <v>       0.00000000       0.00000000       0.00000000 </v>
   <v>       0.00000000       0.00000000       0.00000000 </v>
   <v>       0.00000000       0.00000000       0.00000000 </v>
   <v>       0.00000000       0.00000000       0.00000000 </v>
   <v>       0.00000000       0.00000000       0.00000000 </v>
   <v>       0.00000000       0.00000000       0.00000000 </v>
   <v>       0.00000000       0.00000000       0.00000000 </v>
   <v>       0.00000000       0.00000000       0.00000000 </v>
   <v>       0.00000000       0.00000000       0.00000000 </v>
   <v>       0.00000000       0.00000000       0.00000000 </v>
   <v>       0.00000000       0.00000000       0.00000000 </v>
   <v>       0.00000000       0.00000000       0.00000000 </v>
   <v>       0.00000000       0.00000000       0.00000000 </v>
   <v>       0.00000000       0.00000000       0.00000000 </v>
   <v>       0.00000000       0.00000000       0.00000000 </v>
  </varray>
 </structure>
 <calculation>
  <scstep>
   <time name="dav">  280.66  281.48</time>
   <time name="total">  281.68  282.58</time>
   <energy>
    <i name="alphaZ">     76.95909245 </i>
    <i name="ewald"> 213080.70530516 </i>
    <i name="hartreedc">-219555.84119513 </i>
    <i name="XCdc">    829.07920691 </i>
    <i name="pawpsdc">   6720.41546902 </i>
    <i name="pawaedc">  -6755.16969339 </i>
    <i name="eentropy">      0.00000000 </i>
    <i name="bandstr">   -609.61968534 </i>
    <i name="atom">   9123.59704331 </i>
    <i name="e_fr_energy">   2910.12554299 </i>
    <i name="e_wo_entrp">   2910.12554299 </i>
    <i name="e_0_energy">   2910.12554299 </i>
   </energy>
  </scstep>
  <scstep>
   <time name="dav">  415.03  416.04</time>
   <time name="total">  415.07  416.08</time>
   <energy>
    <i name="e_fr_energy">     76.79687772 </i>
    <i name="e_wo_entrp">     76.79687772 </i>
    <i name="e_0_energy">     76.79687772 </i>
   </energy>
  </scstep>
  <scstep>
   <time name="dav">  345.85  346.69</time>
   <time name="total">  345.90  346.73</time>
   <energy>
    <i name="e_fr_energy">   -546.72952927 </i>
    <i name="e_wo_entrp">   -546.72952927 </i>
    <i name="e_0_energy">   -546.72952927 </i>
   </energy>
  </scstep>
  <scstep>
   <time name="dav">  343.95  344.78</time>
   <time name="total">  344.00  344.83</time>
   <energy>
    <i name="e_fr_energy">   -573.32576236 </i>
    <i name="e_wo_entrp">   -573.32576236 </i>
    <i name="e_0_energy">   -573.32576236 </i>
   </energy>
  </scstep>
  <scstep>
   <time name="dav">  365.83  366.71</time>
   <time name="total">  378.93  379.86</time>
   <energy>
    <i name="e_fr_energy">   -574.02742817 </i>
    <i name="e_wo_entrp">   -574.02742817 </i>
    <i name="e_0_energy">   -574.02742817 </i>
   </energy>
  </scstep>
  <scstep>
   <time name="dav">  305.91  306.63</time>
   <time name="total">  320.02  320.79</time>
   <energy>
    <i name="e_fr_energy">   -398.86680254 </i>
    <i name="e_wo_entrp">   -398.86680254 </i>
    <i name="e_0_energy">   -398.86680254 </i>
   </energy>
  </scstep>
  <scstep>
   <time name="dav">  324.17  324.94</time>
   <time name="total">  338.18  338.99</time>
   <energy>
    <i name="e_fr_energy">   -413.90724035 </i>
    <i name="e_wo_entrp">   -413.90724035 </i>
    <i name="e_0_energy">   -413.90724035 </i>
   </energy>
  </scstep>
  <scstep>
   <time name="dav">  310.58  311.32</time>
   <time name="total">  324.52  325.30</time>
   <energy>
    <i name="e_fr_energy">   -428.53768643 </i>
    <i name="e_wo_entrp">   -428.53768643 </i>
    <i name="e_0_energy">   -428.53768643 </i>
   </energy>
  </scstep>
  <scstep>
   <time name="dav">  305.38  306.11</time>
   <time name="total">  319.34  320.11</time>
   <energy>
    <i name="e_fr_energy">   -448.15323416 </i>
    <i name="e_wo_entrp">   -448.15323416 </i>
    <i name="e_0_energy">   -448.15323416 </i>
   </energy>
  </scstep>
  <scstep>
   <time name="dav">  300.30  301.02</time>
   <time name="total">  314.28  315.04</time>
   <energy>
    <i name="e_fr_energy">   -486.02292520 </i>
    <i name="e_wo_entrp">   -486.02292520 </i>
    <i name="e_0_energy">   -486.02292520 </i>
   </energy>
  </scstep>
  <scstep>
   <time name="dav">  303.63  304.35</time>
   <time name="total">  317.78  318.55</time>
   <energy>
    <i name="e_fr_energy">   -513.68636741 </i>
    <i name="e_wo_entrp">   -513.68636741 </i>
    <i name="e_0_energy">   -513.68636741 </i>
   </energy>
  </scstep>
  <scstep>
   <time name="dav">  294.91  295.62</time>
   <time name="total">  309.83  310.58</time>
   <energy>
    <i name="e_fr_energy">   -541.06877153 </i>
    <i name="e_wo_entrp">   -541.06877153 </i>
    <i name="e_0_energy">   -541.06877153 </i>
   </energy>
  </scstep>
  <scstep>
   <time name="dav">  310.49  311.23</time>
   <time name="total">  324.56  325.41</time>
   <energy>
    <i name="e_fr_energy">   -550.59067749 </i>
    <i name="e_wo_entrp">   -550.59067749 </i>
    <i name="e_0_energy">   -550.59067749 </i>
   </energy>
  </scstep>
  <scstep>
   <time name="dav">  291.36  292.05</time>
   <time name="total">  305.37  306.11</time>
   <energy>
    <i name="e_fr_energy">   -553.95715798 </i>
    <i name="e_wo_entrp">   -553.95715798 </i>
    <i name="e_0_energy">   -553.95715798 </i>
   </energy>
  </scstep>
  <scstep>
   <time name="dav">  292.21  292.91</time>
   <time name="total">  306.20  306.94</time>
   <energy>
    <i name="e_fr_energy">   -555.55455265 </i>
    <i name="e_wo_entrp">   -555.55455265 </i>
    <i name="e_0_energy">   -555.55455265 </i>
   </energy>
  </scstep>
  <scstep>
   <time name="dav">  284.37  285.05</time>
   <time name="total">  298.31  299.05</time>
   <energy>
    <i name="e_fr_energy">   -556.70061250 </i>
    <i name="e_wo_entrp">   -556.70061250 </i>
    <i name="e_0_energy">   -556.70061250 </i>
   </energy>
  </scstep>
  <scstep>
   <time name="dav">  292.32  293.01</time>
   <time name="total">  306.99  307.73</time>
   <energy>
    <i name="e_fr_energy">   -558.34342733 </i>
    <i name="e_wo_entrp">   -558.34342733 </i>
    <i name="e_0_energy">   -558.34342733 </i>
   </energy>
  </scstep>
  <scstep>
   <time name="dav">  299.32  300.03</time>
   <time name="total">  313.35  314.10</time>
   <energy>
    <i name="e_fr_energy">   -559.53065174 </i>
    <i name="e_wo_entrp">   -559.53065174 </i>
    <i name="e_0_energy">   -559.53065174 </i>
   </energy>
  </scstep>
  <scstep>
   <time name="dav">  286.95  287.63</time>
   <time name="total">  301.53  302.26</time>
   <energy>
    <i name="e_fr_energy">   -558.92745228 </i>
    <i name="e_wo_entrp">   -558.92745228 </i>
    <i name="e_0_energy">   -558.92745228 </i>
   </energy>
  </scstep>
  <scstep>
   <time name="dav">  285.39  286.07</time>
   <time name="total">  299.31  300.04</time>
   <energy>
    <i name="e_fr_energy">   -559.08354398 </i>
    <i name="e_wo_entrp">   -559.08354398 </i>
    <i name="e_0_energy">   -559.08354398 </i>
   </energy>
  </scstep>
  <scstep>
   <time name="dav">  294.11  294.80</time>
   <time name="total">  308.21  308.95</time>
   <energy>
    <i name="e_fr_energy">   -560.07003052 </i>
    <i name="e_wo_entrp">   -560.07003052 </i>
    <i name="e_0_energy">   -560.07003052 </i>
   </energy>
  </scstep>
  <scstep>
   <time name="dav">  287.42  288.10</time>
   <time name="total">  301.59  302.32</time>
   <energy>
    <i name="e_fr_energy">   -560.25776892 </i>
    <i name="e_wo_entrp">   -560.25776892 </i>
    <i name="e_0_energy">   -560.25776892 </i>
   </energy>
  </scstep>
  <scstep>
   <time name="dav">  285.35  286.04</time>
   <time name="total">  299.34  300.06</time>
   <energy>
    <i name="e_fr_energy">   -560.28476527 </i>
    <i name="e_wo_entrp">   -560.28476527 </i>
    <i name="e_0_energy">   -560.28476527 </i>
   </energy>
  </scstep>
  <scstep>
   <time name="dav">  279.88  280.55</time>
   <time name="total">  293.82  294.53</time>
   <energy>
    <i name="e_fr_energy">   -560.34436664 </i>
    <i name="e_wo_entrp">   -560.34436664 </i>
    <i name="e_0_energy">   -560.34436664 </i>
   </energy>
  </scstep>
  <scstep>
   <time name="dav">  287.78  288.48</time>
   <time name="total">  302.43  303.17</time>
   <energy>
    <i name="e_fr_energy">   -560.35904800 </i>
    <i name="e_wo_entrp">   -560.35904800 </i>
    <i name="e_0_energy">   -560.35904800 </i>
   </energy>
  </scstep>
  <scstep>
   <time name="dav">  279.92  280.58</time>
   <time name="total">  293.89  294.60</time>
   <energy>
    <i name="e_fr_energy">   -560.36373886 </i>
    <i name="e_wo_entrp">   -560.36373886 </i>
    <i name="e_0_energy">   -560.36373886 </i>
   </energy>
  </scstep>
  <scstep>
   <time name="dav">  280.46  281.13</time>
   <time name="total">  294.42  295.13</time>
   <energy>
    <i name="e_fr_energy">   -560.36689786 </i>
    <i name="e_wo_entrp">   -560.36689786 </i>
    <i name="e_0_energy">   -560.36689786 </i>
   </energy>
  </scstep>
  <scstep>
   <time name="dav">  286.73  287.41</time>
   <time name="total">  300.80  301.52</time>
   <energy>
    <i name="e_fr_energy">   -560.37082453 </i>
    <i name="e_wo_entrp">   -560.37082453 </i>
    <i name="e_0_energy">   -560.37082453 </i>
   </energy>
  </scstep>
  <scstep>
   <time name="dav">  301.83  302.55</time>
   <time name="total">  317.21  317.97</time>
   <energy>
    <i name="e_fr_energy">   -560.37302963 </i>
    <i name="e_wo_entrp">   -560.37302963 </i>
    <i name="e_0_energy">   -560.37302963 </i>
   </energy>
  </scstep>
  <scstep>
   <time name="dav">  292.38  293.07</time>
   <time name="total">  306.32  307.05</time>
   <energy>
    <i name="e_fr_energy">   -560.37362771 </i>
    <i name="e_wo_entrp">   -560.37362771 </i>
    <i name="e_0_energy">   -560.37362771 </i>
   </energy>
  </scstep>
  <scstep>
   <time name="dav">  288.42  289.11</time>
   <time name="total">  302.39  303.12</time>
   <energy>
    <i name="e_fr_energy">   -560.37399258 </i>
    <i name="e_wo_entrp">   -560.37399258 </i>
    <i name="e_0_energy">   -560.37399258 </i>
   </energy>
  </scstep>
  <scstep>
   <time name="dav">  293.31  294.01</time>
   <time name="total">  307.28  308.02</time>
   <energy>
    <i name="e_fr_energy">   -560.37420360 </i>
    <i name="e_wo_entrp">   -560.37420360 </i>
    <i name="e_0_energy">   -560.37420360 </i>
   </energy>
  </scstep>
  <scstep>
   <time name="dav">  271.61  272.26</time>
   <time name="total">  285.56  286.24</time>
   <energy>
    <i name="e_fr_energy">   -560.37438342 </i>
    <i name="e_wo_entrp">   -560.37438342 </i>
    <i name="e_0_energy">   -560.37438342 </i>
   </energy>
  </scstep>
  <scstep>
   <time name="dav">  266.03  266.67</time>
   <time name="total">  280.59  281.26</time>
   <energy>
    <i name="e_fr_energy">   -560.37447289 </i>
    <i name="e_wo_entrp">   -560.37447289 </i>
    <i name="e_0_energy">   -560.37447289 </i>
   </energy>
  </scstep>
  <scstep>
   <time name="dav">  252.74  253.33</time>
   <time name="total">  267.79  268.43</time>
   <energy>
    <i name="e_fr_energy">   -560.37450575 </i>
    <i name="e_wo_entrp">   -560.37450575 </i>
    <i name="e_0_energy">   -560.37450575 </i>
   </energy>
  </scstep>
  <scstep>
   <time name="dav">  230.05  230.59</time>
   <time name="total">  244.91  245.50</time>
   <energy>
    <i name="e_fr_energy">   -560.37452193 </i>
    <i name="e_wo_entrp">   -560.37452193 </i>
    <i name="e_0_energy">   -560.37452193 </i>
   </energy>
  </scstep>
  <scstep>
   <time name="dav">  231.34  231.88</time>
   <time name="total">  245.34  245.94</time>
   <energy>
    <i name="e_fr_energy">   -560.37453072 </i>
    <i name="e_wo_entrp">   -560.37453072 </i>
    <i name="e_0_energy">   -560.37453072 </i>
   </energy>
  </scstep>
  <scstep>
   <time name="dav">  226.16  226.70</time>
   <time name="total">  240.65  241.24</time>
   <energy>
    <i name="e_fr_energy">   -560.37453591 </i>
    <i name="e_wo_entrp">   -560.37453591 </i>
    <i name="e_0_energy">   -560.37453591 </i>
   </energy>
  </scstep>
  <scstep>
   <time name="dav">  224.56  225.09</time>
   <time name="total">  238.60  239.17</time>
   <energy>
    <i name="e_fr_energy">   -560.37453915 </i>
    <i name="e_wo_entrp">   -560.37453915 </i>
    <i name="e_0_energy">   -560.37453915 </i>
   </energy>
  </scstep>
  <scstep>
   <time name="dav">  224.49  225.03</time>
   <time name="total">  238.50  239.08</time>
   <energy>
    <i name="e_fr_energy">   -560.37454149 </i>
    <i name="e_wo_entrp">   -560.37454149 </i>
    <i name="e_0_energy">   -560.37454149 </i>
   </energy>
  </scstep>
  <scstep>
   <time name="dav">  220.95  221.48</time>
   <time name="total">  234.93  235.50</time>
   <energy>
    <i name="e_fr_energy">   -560.37454249 </i>
    <i name="e_wo_entrp">   -560.37454249 </i>
    <i name="e_0_energy">   -560.37454249 </i>
   </energy>
  </scstep>
  <scstep>
   <time name="dav">  221.00  221.52</time>
   <time name="total">  235.03  235.60</time>
   <energy>
    <i name="e_fr_energy">   -560.37454313 </i>
    <i name="e_wo_entrp">   -560.37454313 </i>
    <i name="e_0_energy">   -560.37454313 </i>
   </energy>
  </scstep>
  <scstep>
   <time name="dav">  220.92  221.45</time>
   <time name="total">  236.42  237.00</time>
   <energy>
    <i name="e_fr_energy">   -560.37454345 </i>
    <i name="e_wo_entrp">   -560.37454345 </i>
    <i name="e_0_energy">   -560.37454345 </i>
   </energy>
  </scstep>
  <scstep>
   <time name="dav">  226.19  226.73</time>
   <time name="total">  227.18  227.73</time>
   <energy>
    <i name="alphaZ">     76.95909245 </i>
    <i name="ewald"> 213080.70530516 </i>
    <i name="hartreedc">-220621.73047583 </i>
    <i name="XCdc">    853.43552254 </i>
    <i name="pawpsdc">  25787.22326156 </i>
    <i name="pawaedc"> -25829.28062852 </i>
    <i name="eentropy">      0.00000000 </i>
    <i name="bandstr">  -3031.28366421 </i>
    <i name="atom">   9123.59704331 </i>
    <i name="e_fr_energy">   -560.37454354 </i>
    <i name="e_wo_entrp">   -560.37454354 </i>
    <i name="e_0_energy">   -560.37454354 </i>
   </energy>
  </scstep>
  <structure>
   <crystal>
    <varray name="basis" >
     <v>       9.83174697       0.15492140      -0.01230162 </v>
     <v>       5.05666457       8.43319271      -0.01309993 </v>
     <v>      -0.06179162      -0.04043584      49.95911364 </v>
    </varray>
    <i name="volume">   4103.11460630 </i>
    <varray name="rec_basis" >
     <v>       0.10268158      -0.06156925       0.00007717 </v>
     <v>      -0.00188619       0.11971018       0.00009456 </v>
     <v>       0.00002479       0.00001623       0.02001641 </v>
    </varray>
   </crystal>
   <varray name="positions" >
    <v>       0.99544674       0.99532884       0.38332420 </v>
    <v>       0.07621937       0.07609588       0.38281028 </v>
    <v>       0.08072663       0.08079999       0.45296520 </v>
    <v>       0.16194303       0.16201211       0.44984677 </v>
    <v>       0.00371592       0.24214890       0.38345710 </v>
    <v>       0.11073808       0.29697992       0.38496213 </v>
    <v>       0.07972366       0.33093164       0.44995755 </v>
    <v>       0.16103111       0.41120087       0.44515490 </v>
    <v>       0.02341468       0.47455419       0.38653733 </v>
    <v>       0.09357675       0.57242044       0.38868242 </v>
    <v>       0.09407637       0.57309794       0.45131532 </v>
    <v>       0.19193482       0.64326725       0.45345952 </v>
    <v>       0.00217451       0.74246258       0.38520318 </v>
    <v>       0.08227197       0.82742722       0.38444252 </v>
    <v>       0.09338535       0.82162603       0.45423049 </v>
    <v>       0.16857850       0.91100516       0.45430280 </v>
    <v>       0.24226819       0.00359612       0.38346304 </v>
    <v>       0.29709884       0.11061909       0.38496521 </v>
    <v>       0.33086387       0.07978533       0.44995421 </v>
    <v>       0.41114516       0.16108350       0.44515596 </v>
    <v>       0.35141575       0.35135261       0.40778606 </v>
    <v>       0.31518967       0.31521129       0.43221407 </v>
    <v>       0.25546030       0.50548059       0.39484387 </v>
    <v>       0.33574196       0.58677838       0.39004627 </v>
    <v>       0.36950657       0.55594452       0.45503556 </v>
    <v>       0.42433759       0.66296787       0.45653778 </v>
    <v>       0.24951612       0.75128408       0.38535003 </v>
    <v>       0.33097687       0.83592832       0.38445986 </v>
    <v>       0.33562920       0.83063532       0.45554091 </v>
    <v>       0.41708987       0.91527952       0.45464984 </v>
    <v>       0.47467079       0.02329662       0.38654035 </v>
    <v>       0.57252898       0.09346652       0.38868374 </v>
    <v>       0.57302969       0.09414293       0.45131654 </v>
    <v>       0.64319113       0.19200946       0.45346265 </v>
    <v>       0.50557486       0.25536263       0.39484508 </v>
    <v>       0.58688219       0.33563221       0.39004326 </v>
    <v>       0.55586767       0.36958343       0.45503880 </v>
    <v>       0.66289004       0.42441485       0.45654411 </v>
    <v>       0.50466280       0.50455176       0.39015466 </v>
    <v>       0.58587961       0.58576414       0.38703641 </v>
    <v>       0.59038645       0.59046780       0.45719023 </v>
    <v>       0.67115853       0.67123443       0.45667454 </v>
    <v>       0.49802714       0.75555878       0.38569833 </v>
    <v>       0.57322055       0.84493793       0.38576967 </v>
    <v>       0.58433412       0.83913643       0.45555569 </v>
    <v>       0.66443161       0.92410031       0.45479459 </v>
    <v>       0.74257584       0.00205937       0.38520227 </v>
    <v>       0.82754309       0.08215318       0.38443793 </v>
    <v>       0.82154891       0.09346273       0.45423363 </v>
    <v>       0.91092864       0.16865533       0.45430844 </v>
    <v>       0.75139448       0.24940070       0.38534251 </v>
    <v>       0.83604472       0.33085682       0.38445102 </v>
    <v>       0.83056123       0.33570707       0.45555033 </v>
    <v>       0.91521137       0.41716322       0.45465792 </v>
    <v>       0.75567731       0.49790835       0.38569303 </v>
    <v>       0.84505709       0.57310115       0.38576669 </v>
    <v>       0.83906271       0.58441078       0.45556063 </v>
    <v>       0.92402906       0.66450481       0.45479565 </v>
    <v>       0.74968894       0.74957052       0.38576866 </v>
    <v>       0.83127999       0.83116326       0.38468506 </v>
    <v>       0.83532576       0.83540055       0.45531259 </v>
    <v>       0.91691688       0.91699334       0.45423059 </v>
   </varray>
  </structure>
  <varray name="forces" >
   <v>      -0.03560052      -0.02140006      -0.05923919 </v>
   <v>       0.02038213       0.01283520      -0.03455215 </v>
   <v>      -0.02878235      -0.01617605      -0.06170603 </v>
   <v>       0.00124245       0.00032460      -0.05675204 </v>
   <v>      -0.01904220      -0.01290344      -0.02151283 </v>
   <v>      -0.00639761       0.02164320      -0.00571180 </v>
   <v>      -0.01545869      -0.03757375      -0.02894439 </v>
   <v>       0.01568773       0.00558446      -0.03067993 </v>
   <v>       0.00895923      -0.04062231      -0.01639059 </v>
   <v>       0.03331867       0.00333115      -0.00760627 </v>
   <v>      -0.01935430      -0.02761387       0.00760660 </v>
   <v>       0.03079766      -0.02823554       0.01653284 </v>
   <v>      -0.00564139      -0.01557868      -0.05136657 </v>
   <v>       0.00968398      -0.00271380      -0.04915740 </v>
   <v>      -0.01462949       0.01757414      -0.00646004 </v>
   <v>      -0.00137968      -0.01149586      -0.03503034 </v>
   <v>      -0.01956048      -0.01066876      -0.02174568 </v>
   <v>       0.01523051      -0.01641512      -0.00586103 </v>
   <v>      -0.04015748       0.00567202      -0.02871538 </v>
   <v>       0.01270543       0.01071684      -0.03070725 </v>
   <v>       0.05454501       0.03144591      -0.02723684 </v>
   <v>      -0.05449796      -0.03141798       0.02715744 </v>
   <v>      -0.01286794      -0.01088559       0.03077446 </v>
   <v>       0.04019930      -0.00541393       0.02863808 </v>
   <v>      -0.01506187       0.01651004       0.00579944 </v>
   <v>       0.01936633       0.01045107       0.02165617 </v>
   <v>      -0.01419356       0.01615087      -0.00146926 </v>
   <v>       0.01743685      -0.00501646       0.00840969 </v>
   <v>      -0.01751335       0.00514499      -0.00847087 </v>
   <v>       0.01423034      -0.01619678       0.00147883 </v>
   <v>      -0.03077586       0.02824938      -0.01653990 </v>
   <v>       0.01936264       0.02762801      -0.00755342 </v>
   <v>      -0.03332539      -0.00330911       0.00765621 </v>
   <v>      -0.00892369       0.04061508       0.01637953 </v>
   <v>      -0.01590580      -0.00565820       0.03073550 </v>
   <v>       0.01567983       0.03748465       0.02885791 </v>
   <v>       0.00651909      -0.02154547       0.00564067 </v>
   <v>       0.01885452       0.01278032       0.02140737 </v>
   <v>      -0.00101254      -0.00019525       0.05669159 </v>
   <v>       0.02850695       0.01606658       0.06168842 </v>
   <v>      -0.02054207      -0.01287661       0.03449710 </v>
   <v>       0.03616157       0.02169179       0.05929445 </v>
   <v>       0.00159211       0.01147440       0.03497986 </v>
   <v>       0.01450799      -0.01762628       0.00644407 </v>
   <v>      -0.00991357       0.00232504       0.04929663 </v>
   <v>       0.00585401       0.01569227       0.05151520 </v>
   <v>      -0.01604677       0.00245671      -0.05132853 </v>
   <v>       0.00206394       0.01095248      -0.04878424 </v>
   <v>       0.00774581      -0.02169921      -0.00660781 </v>
   <v>      -0.01003327       0.00448569      -0.03535099 </v>
   <v>       0.00679074      -0.02103505      -0.00098063 </v>
   <v>       0.00428867       0.01840806       0.00893742 </v>
   <v>      -0.00428753      -0.01846001      -0.00901627 </v>
   <v>      -0.00679140       0.02104322       0.00096696 </v>
   <v>       0.01016145      -0.00436798       0.03528092 </v>
   <v>      -0.00786041       0.02164723       0.00658482 </v>
   <v>      -0.00251246      -0.01089555       0.04891430 </v>
   <v>       0.01623997      -0.00235509       0.05147341 </v>
   <v>      -0.04524798      -0.02608524      -0.01014290 </v>
   <v>       0.03541531       0.02063093      -0.04711571 </v>
   <v>      -0.03553596      -0.02070006       0.04726194 </v>
   <v>       0.04532336       0.02612076       0.01017846 </v>
  </varray>
  <varray name="stress" >
   <v>       0.05608966       0.19216679      -0.09048650 </v>
   <v>       0.19216672      -0.16895511      -0.05416934 </v>
   <v>      -0.09048652      -0.05416934       0.08889213 </v>
  </varray>
  <energy>
   <i name="e_fr_energy">   -567.41383330 </i>
   <i name="e_wo_entrp">   -567.41383330 </i>
   <i name="e_0_energy">      0.00000000 </i>
  </energy>
  <time name="totalsc">13548.4913581.61</time>
  <eigenvalues>
   <array>
    <dimension dim="1">band</dimension>
    <dimension dim="2">kpoint</dimension>
    <dimension dim="3">spin</dimension>
    <field>eigene</field>
    <field>occ</field>
    <set>
     <set comment="spin 1">
      <set comment="kpoint 1">
       <r>  -22.8144    1.0000 </r>
       <r>  -22.6028    1.0000 </r>
       <r>  -21.6898    1.0000 </r>
       <r>  -21.4610    1.0000 </r>
       <r>  -21.3624    1.0000 </r>
       <r>  -21.3567    1.0000 </r>
       <r>  -21.3182    1.0000 </r>
       <r>  -21.2892    1.0000 </r>
       <r>  -21.1393    1.0000 </r>
       <r>  -21.1290    1.0000 </r>
       <r>  -20.9854    1.0000 </r>
       <r>  -20.8638    1.0000 </r>
       <r>  -20.7326    1.0000 </r>
       <r>  -20.2828    1.0000 </r>
       <r>  -18.9157    1.0000 </r>
       <r>  -18.5398    1.0000 </r>
       <r>  -18.4709    1.0000 </r>
       <r>  -18.4229    1.0000 </r>
       <r>  -18.3814    1.0000 </r>
       <r>  -18.2971    1.0000 </r>
       <r>  -18.2857    1.0000 </r>
       <r>  -18.1859    1.0000 </r>
       <r>  -18.1091    1.0000 </r>
       <r>  -18.0357    1.0000 </r>
       <r>  -17.8530    1.0000 </r>
       <r>  -17.7893    1.0000 </r>
       <r>  -17.5985    1.0000 </r>
       <r>  -17.3232    1.0000 </r>
       <r>  -17.2366    1.0000 </r>
       <r>  -17.2145    1.0000 </r>
       <r>  -16.9521    1.0000 </r>
       <r>  -16.7053    1.0000 </r>
       <r>  -16.4839    1.0000 </r>
       <r>  -16.3647    1.0000 </r>
       <r>  -16.0319    1.0000 </r>
       <r>  -15.8722    1.0000 </r>
       <r>  -15.7909    1.0000 </r>
       <r>  -15.2463    1.0000 </r>
       <r>  -14.1966    1.0000 </r>
       <r>  -13.7634    1.0000 </r>
       <r>  -13.6288    1.0000 </r>
       <r>  -13.4989    1.0000 </r>
       <r>  -13.4985    1.0000 </r>
       <r>  -13.4818    1.0000 </r>
       <r>  -13.4781    1.0000 </r>
       <r>  -13.4675    1.0000 </r>
       <r>  -13.3610    1.0000 </r>
       <r>  -13.2580    1.0000 </r>
       <r>  -12.4943    1.0000 </r>
       <r>  -12.4332    1.0000 </r>
       <r>  -12.3121    1.0000 </r>
       <r>  -12.2718    1.0000 </r>
       <r>  -12.0488    1.0000 </r>
       <r>  -12.0069    1.0000 </r>
       <r>  -11.9855    1.0000 </r>
       <r>  -11.9637    1.0000 </r>
       <r>  -11.9336    1.0000 </r>
       <r>  -11.7872    1.0000 </r>
       <r>  -11.7742    1.0000 </r>
       <r>  -11.4825    1.0000 </r>
       <r>  -11.4815    1.0000 </r>
       <r>  -11.2025    1.0000 </r>
       <r>  -11.1606    1.0000 </r>
       <r>  -10.8598    1.0000 </r>
       <r>  -10.7442    1.0000 </r>
       <r>  -10.7130    1.0000 </r>
       <r>  -10.6715    1.0000 </r>
       <r>  -10.5829    1.0000 </r>
       <r>  -10.4197    1.0000 </r>
       <r>  -10.1781    1.0000 </r>
       <r>  -10.1556    1.0000 </r>
       <r>  -10.0206    1.0000 </r>
       <r>  -10.0203    1.0000 </r>
       <r>   -9.9274    1.0000 </r>
       <r>   -9.6682    1.0000 </r>
       <r>   -9.6644    1.0000 </r>
       <r>   -9.5535    1.0000 </r>
       <r>   -9.4067    1.0000 </r>
       <r>   -9.4065    1.0000 </r>
       <r>   -9.3773    1.0000 </r>
       <r>   -9.3380    1.0000 </r>
       <r>   -9.2554    1.0000 </r>
       <r>   -9.2188    1.0000 </r>
       <r>   -9.1817    1.0000 </r>
       <r>   -8.9241    1.0000 </r>
       <r>   -8.6919    1.0000 </r>
       <r>   -8.6612    1.0000 </r>
       <r>   -8.6535    1.0000 </r>
       <r>   -8.5962    1.0000 </r>
       <r>   -8.5669    1.0000 </r>
       <r>   -8.4615    1.0000 </r>
       <r>   -8.4562    1.0000 </r>
       <r>   -8.4288    1.0000 </r>
       <r>   -8.1629    1.0000 </r>
       <r>   -8.1525    1.0000 </r>
       <r>   -8.0850    1.0000 </r>
       <r>   -8.0472    1.0000 </r>
       <r>   -8.0438    1.0000 </r>
       <r>   -7.9993    1.0000 </r>
       <r>   -7.9689    1.0000 </r>
       <r>   -7.9603    1.0000 </r>
       <r>   -7.5996    1.0000 </r>
       <r>   -7.5672    1.0000 </r>
       <r>   -6.8786    1.0000 </r>
       <r>   -6.5215    1.0000 </r>
       <r>   -6.4404    1.0000 </r>
       <r>   -6.3944    1.0000 </r>
       <r>   -6.1771    1.0000 </r>
       <r>   -6.1750    1.0000 </r>
       <r>   -6.1719    1.0000 </r>
       <r>   -6.0084    1.0000 </r>
       <r>   -5.7763    1.0000 </r>
       <r>   -5.7264    1.0000 </r>
       <r>   -5.6861    1.0000 </r>
       <r>   -5.5785    1.0000 </r>
       <r>   -5.5434    1.0000 </r>
       <r>   -5.4530    1.0000 </r>
       <r>   -5.4094    1.0000 </r>
       <r>   -5.3677    1.0000 </r>
       <r>   -5.1736    1.0000 </r>
       <r>   -5.0730    1.0000 </r>
       <r>   -4.9758    1.0000 </r>
       <r>   -4.8321    1.0000 </r>
       <r>   -4.0842    1.0000 </r>
       <r>   -2.9874    0.0000 </r>
       <r>   -2.8892    0.0000 </r>
       <r>   -1.3128    0.0000 </r>
       <r>   -1.3120    0.0000 </r>
       <r>   -1.1544    0.0000 </r>
       <r>   -1.0878    0.0000 </r>
       <r>   -0.9892    0.0000 </r>
       <r>   -0.9639    0.0000 </r>
       <r>   -0.5331    0.0000 </r>
       <r>   -0.4000    0.0000 </r>
       <r>   -0.3459    0.0000 </r>
       <r>   -0.2929    0.0000 </r>
       <r>   -0.1134    0.0000 </r>
       <r>   -0.0909    0.0000 </r>
       <r>   -0.0078    0.0000 </r>
       <r>    0.0128    0.0000 </r>
       <r>    0.2257    0.0000 </r>
       <r>    0.3691    0.0000 </r>
       <r>    0.7147    0.0000 </r>
       <r>    0.7182    0.0000 </r>
       <r>    0.7329    0.0000 </r>
       <r>    1.2087    0.0000 </r>
       <r>    1.2680    0.0000 </r>
       <r>    1.2990    0.0000 </r>
       <r>    1.4002    0.0000 </r>
       <r>    1.4938    0.0000 </r>
       <r>    1.5952    0.0000 </r>
       <r>    1.7543    0.0000 </r>
       <r>    2.0557    0.0000 </r>
       <r>    2.2376    0.0000 </r>
       <r>    2.3027    0.0000 </r>
       <r>    2.3029    0.0000 </r>
       <r>    2.4112    0.0000 </r>
       <r>    2.4233    0.0000 </r>
       <r>    2.5007    0.0000 </r>
       <r>    2.5070    0.0000 </r>
       <r>    2.6650    0.0000 </r>
       <r>    2.6834    0.0000 </r>
       <r>    2.7060    0.0000 </r>
       <r>    2.7312    0.0000 </r>
       <r>    2.7617    0.0000 </r>
       <r>    2.8129    0.0000 </r>
       <r>    2.8170    0.0000 </r>
       <r>    2.8532    0.0000 </r>
       <r>    2.9428    0.0000 </r>
       <r>    3.2203    0.0000 </r>
       <r>    3.2405    0.0000 </r>
       <r>    3.2450    0.0000 </r>
       <r>    3.2515    0.0000 </r>
       <r>    3.3314    0.0000 </r>
       <r>    3.3330    0.0000 </r>
       <r>    3.3639    0.0000 </r>
       <r>    3.3639    0.0000 </r>
       <r>    3.3643    0.0000 </r>
       <r>    3.3646    0.0000 </r>
       <r>    3.4288    0.0000 </r>
       <r>    3.4288    0.0000 </r>
       <r>    3.4454    0.0000 </r>
       <r>    3.4519    0.0000 </r>
       <r>    3.4531    0.0000 </r>
       <r>    3.4536    0.0000 </r>
       <r>    3.4651    0.0000 </r>
       <r>    3.4897    0.0000 </r>
       <r>    3.5408    0.0000 </r>
       <r>    3.5471    0.0000 </r>
       <r>    3.5475    0.0000 </r>
       <r>    3.5551    0.0000 </r>
       <r>    3.6060    0.0000 </r>
      </set>
      <set comment="kpoint 2">
       <r>  -22.7739    1.0000 </r>
       <r>  -22.5650    1.0000 </r>
       <r>  -21.8580    1.0000 </r>
       <r>  -21.7368    1.0000 </r>
       <r>  -21.5729    1.0000 </r>
       <r>  -21.4377    1.0000 </r>
       <r>  -21.2688    1.0000 </r>
       <r>  -21.1649    1.0000 </r>
       <r>  -21.0300    1.0000 </r>
       <r>  -20.9772    1.0000 </r>
       <r>  -20.8038    1.0000 </r>
       <r>  -20.6843    1.0000 </r>
       <r>  -20.5122    1.0000 </r>
       <r>  -20.1151    1.0000 </r>
       <r>  -19.2102    1.0000 </r>
       <r>  -19.0240    1.0000 </r>
       <r>  -18.8831    1.0000 </r>
       <r>  -18.7222    1.0000 </r>
       <r>  -18.5581    1.0000 </r>
       <r>  -18.2525    1.0000 </r>
       <r>  -18.1702    1.0000 </r>
       <r>  -18.1030    1.0000 </r>
       <r>  -17.9808    1.0000 </r>
       <r>  -17.7374    1.0000 </r>
       <r>  -17.7243    1.0000 </r>
       <r>  -17.6201    1.0000 </r>
       <r>  -17.5656    1.0000 </r>
       <r>  -17.4367    1.0000 </r>
       <r>  -17.3453    1.0000 </r>
       <r>  -17.3251    1.0000 </r>
       <r>  -16.8517    1.0000 </r>
       <r>  -16.6413    1.0000 </r>
       <r>  -16.2390    1.0000 </r>
       <r>  -16.0148    1.0000 </r>
       <r>  -15.8736    1.0000 </r>
       <r>  -15.7644    1.0000 </r>
       <r>  -15.4550    1.0000 </r>
       <r>  -14.9773    1.0000 </r>
       <r>  -14.4737    1.0000 </r>
       <r>  -14.1803    1.0000 </r>
       <r>  -14.0511    1.0000 </r>
       <r>  -14.0098    1.0000 </r>
       <r>  -13.9631    1.0000 </r>
       <r>  -13.7420    1.0000 </r>
       <r>  -13.5485    1.0000 </r>
       <r>  -13.2982    1.0000 </r>
       <r>  -13.0795    1.0000 </r>
       <r>  -12.9263    1.0000 </r>
       <r>  -12.6548    1.0000 </r>
       <r>  -12.6331    1.0000 </r>
       <r>  -12.5395    1.0000 </r>
       <r>  -12.3439    1.0000 </r>
       <r>  -12.1746    1.0000 </r>
       <r>  -12.0101    1.0000 </r>
       <r>  -11.8537    1.0000 </r>
       <r>  -11.6984    1.0000 </r>
       <r>  -11.5974    1.0000 </r>
       <r>  -11.5705    1.0000 </r>
       <r>  -11.5584    1.0000 </r>
       <r>  -11.4203    1.0000 </r>
       <r>  -11.2442    1.0000 </r>
       <r>  -11.2210    1.0000 </r>
       <r>  -11.1448    1.0000 </r>
       <r>  -11.0790    1.0000 </r>
       <r>  -10.9728    1.0000 </r>
       <r>  -10.6923    1.0000 </r>
       <r>  -10.6454    1.0000 </r>
       <r>  -10.5056    1.0000 </r>
       <r>  -10.4070    1.0000 </r>
       <r>  -10.2184    1.0000 </r>
       <r>  -10.1830    1.0000 </r>
       <r>  -10.0128    1.0000 </r>
       <r>   -9.9151    1.0000 </r>
       <r>   -9.7972    1.0000 </r>
       <r>   -9.7034    1.0000 </r>
       <r>   -9.6001    1.0000 </r>
       <r>   -9.4908    1.0000 </r>
       <r>   -9.4238    1.0000 </r>
       <r>   -9.3806    1.0000 </r>
       <r>   -9.3279    1.0000 </r>
       <r>   -9.1786    1.0000 </r>
       <r>   -9.1239    1.0000 </r>
       <r>   -9.1125    1.0000 </r>
       <r>   -9.0481    1.0000 </r>
       <r>   -8.9377    1.0000 </r>
       <r>   -8.8670    1.0000 </r>
       <r>   -8.8194    1.0000 </r>
       <r>   -8.7779    1.0000 </r>
       <r>   -8.5955    1.0000 </r>
       <r>   -8.5023    1.0000 </r>
       <r>   -8.4680    1.0000 </r>
       <r>   -8.4222    1.0000 </r>
       <r>   -8.3407    1.0000 </r>
       <r>   -8.2940    1.0000 </r>
       <r>   -8.1584    1.0000 </r>
       <r>   -8.1416    1.0000 </r>
       <r>   -8.1247    1.0000 </r>
       <r>   -7.9664    1.0000 </r>
       <r>   -7.9099    1.0000 </r>
       <r>   -7.8886    1.0000 </r>
       <r>   -7.7514    1.0000 </r>
       <r>   -7.6623    1.0000 </r>
       <r>   -7.3380    1.0000 </r>
       <r>   -6.9040    1.0000 </r>
       <r>   -6.7548    1.0000 </r>
       <r>   -6.6647    1.0000 </r>
       <r>   -6.5739    1.0000 </r>
       <r>   -6.4431    1.0000 </r>
       <r>   -6.3987    1.0000 </r>
       <r>   -6.1922    1.0000 </r>
       <r>   -6.0847    1.0000 </r>
       <r>   -5.9703    1.0000 </r>
       <r>   -5.8250    1.0000 </r>
       <r>   -5.7556    1.0000 </r>
       <r>   -5.6109    1.0000 </r>
       <r>   -5.5882    1.0000 </r>
       <r>   -5.4732    1.0000 </r>
       <r>   -5.3598    1.0000 </r>
       <r>   -5.2070    1.0000 </r>
       <r>   -5.0608    1.0000 </r>
       <r>   -5.0098    1.0000 </r>
       <r>   -4.7009    1.0000 </r>
       <r>   -4.5839    1.0000 </r>
       <r>   -4.0722    1.0000 </r>
       <r>   -2.9712    0.0000 </r>
       <r>   -2.8202    0.0000 </r>
       <r>   -1.3609    0.0000 </r>
       <r>   -1.3425    0.0000 </r>
       <r>   -1.2070    0.0000 </r>
       <r>   -1.0742    0.0000 </r>
       <r>   -1.0190    0.0000 </r>
       <r>   -0.9351    0.0000 </r>
       <r>   -0.7954    0.0000 </r>
       <r>   -0.7112    0.0000 </r>
       <r>   -0.5091    0.0000 </r>
       <r>   -0.4399    0.0000 </r>
       <r>   -0.1688    0.0000 </r>
       <r>    0.1010    0.0000 </r>
       <r>    0.2309    0.0000 </r>
       <r>    0.3979    0.0000 </r>
       <r>    0.4580    0.0000 </r>
       <r>    0.5231    0.0000 </r>
       <r>    0.5947    0.0000 </r>
       <r>    0.6697    0.0000 </r>
       <r>    0.7788    0.0000 </r>
       <r>    1.2685    0.0000 </r>
       <r>    1.3581    0.0000 </r>
       <r>    1.4126    0.0000 </r>
       <r>    1.4602    0.0000 </r>
       <r>    1.5119    0.0000 </r>
       <r>    1.6550    0.0000 </r>
       <r>    1.8092    0.0000 </r>
       <r>    1.8175    0.0000 </r>
       <r>    2.0498    0.0000 </r>
       <r>    2.1214    0.0000 </r>
       <r>    2.1451    0.0000 </r>
       <r>    2.1828    0.0000 </r>
       <r>    2.3003    0.0000 </r>
       <r>    2.4199    0.0000 </r>
       <r>    2.4932    0.0000 </r>
       <r>    2.5806    0.0000 </r>
       <r>    2.6965    0.0000 </r>
       <r>    2.7056    0.0000 </r>
       <r>    2.7612    0.0000 </r>
       <r>    2.7919    0.0000 </r>
       <r>    2.7949    0.0000 </r>
       <r>    2.8799    0.0000 </r>
       <r>    2.8926    0.0000 </r>
       <r>    2.9035    0.0000 </r>
       <r>    2.9650    0.0000 </r>
       <r>    3.0033    0.0000 </r>
       <r>    3.0450    0.0000 </r>
       <r>    3.0545    0.0000 </r>
       <r>    3.0912    0.0000 </r>
       <r>    3.1057    0.0000 </r>
       <r>    3.1333    0.0000 </r>
       <r>    3.1544    0.0000 </r>
       <r>    3.1828    0.0000 </r>
       <r>    3.2299    0.0000 </r>
       <r>    3.2334    0.0000 </r>
       <r>    3.2454    0.0000 </r>
       <r>    3.3455    0.0000 </r>
       <r>    3.3526    0.0000 </r>
       <r>    3.4249    0.0000 </r>
       <r>    3.4911    0.0000 </r>
       <r>    3.5196    0.0000 </r>
       <r>    3.5395    0.0000 </r>
       <r>    3.5512    0.0000 </r>
       <r>    3.5521    0.0000 </r>
       <r>    3.5848    0.0000 </r>
       <r>    3.6445    0.0000 </r>
       <r>    3.6902    0.0000 </r>
      </set>
      <set comment="kpoint 3">
       <r>  -22.6533    1.0000 </r>
       <r>  -22.4539    1.0000 </r>
       <r>  -22.1734    1.0000 </r>
       <r>  -22.0117    1.0000 </r>
       <r>  -21.6846    1.0000 </r>
       <r>  -21.5941    1.0000 </r>
       <r>  -21.3656    1.0000 </r>
       <r>  -21.1993    1.0000 </r>
       <r>  -20.6891    1.0000 </r>
       <r>  -20.6323    1.0000 </r>
       <r>  -20.4263    1.0000 </r>
       <r>  -20.3174    1.0000 </r>
       <r>  -20.0529    1.0000 </r>
       <r>  -19.8147    1.0000 </r>
       <r>  -19.6340    1.0000 </r>
       <r>  -19.5698    1.0000 </r>
       <r>  -19.4199    1.0000 </r>
       <r>  -19.2345    1.0000 </r>
       <r>  -18.7711    1.0000 </r>
       <r>  -18.4377    1.0000 </r>
       <r>  -18.3182    1.0000 </r>
       <r>  -18.1250    1.0000 </r>
       <r>  -18.0473    1.0000 </r>
       <r>  -18.0263    1.0000 </r>
       <r>  -17.9370    1.0000 </r>
       <r>  -17.6792    1.0000 </r>
       <r>  -17.3021    1.0000 </r>
       <r>  -17.2304    1.0000 </r>
       <r>  -16.8788    1.0000 </r>
       <r>  -16.8088    1.0000 </r>
       <r>  -16.5612    1.0000 </r>
[...]
       <r>   -17.4723     5.2094    25.7520 </r>
       <r>   -17.3740     5.0219    26.3230 </r>
       <r>   -17.2757     7.3624    26.9542 </r>
       <r>   -17.1775     5.2795    27.5509 </r>
       <r>   -17.0792     4.2849    28.0195 </r>
       <r>   -16.9809     3.6267    28.4070 </r>
       <r>   -16.8827     4.6679    28.8403 </r>
       <r>   -16.7844     3.8787    29.2375 </r>
       <r>   -16.6861     4.4969    29.6784 </r>
       <r>   -16.5879     3.5658    30.1430 </r>
       <r>   -16.4896     2.4994    30.5381 </r>
       <r>   -16.3913     2.6449    30.7873 </r>
       <r>   -16.2931     2.9169    31.0614 </r>
       <r>   -16.1948     5.8500    31.5173 </r>
       <r>   -16.0965     3.0384    31.8754 </r>
       <r>   -15.9983     5.5856    32.2604 </r>
       <r>   -15.9000     5.6068    32.8279 </r>
       <r>   -15.8017     4.2450    33.2685 </r>
       <r>   -15.7035     4.8761    33.7122 </r>
       <r>   -15.6052     5.6558    34.2167 </r>
       <r>   -15.5070     7.7820    34.8470 </r>
       <r>   -15.4087     7.7725    35.7031 </r>
       <r>   -15.3104     8.9182    36.4557 </r>
       <r>   -15.2122     4.6065    37.0559 </r>
       <r>   -15.1139     4.0140    37.4973 </r>
       <r>   -15.0156     5.7314    38.0224 </r>
       <r>   -14.9174     3.2261    38.4620 </r>
       <r>   -14.8191     4.4378    38.8202 </r>
       <r>   -14.7208     6.4819    39.4295 </r>
       <r>   -14.6226     6.1124    40.0416 </r>
       <r>   -14.5243     3.6753    40.4208 </r>
       <r>   -14.4260     5.2836    40.9800 </r>
       <r>   -14.3278     5.6185    41.4894 </r>
       <r>   -14.2295     4.0234    41.9593 </r>
       <r>   -14.1312     5.2261    42.3689 </r>
       <r>   -14.0330     4.9202    42.8966 </r>
       <r>   -13.9347     5.0342    43.3555 </r>
       <r>   -13.8364     6.9797    43.8421 </r>
       <r>   -13.7382     2.6408    44.4384 </r>
       <r>   -13.6399     3.1107    44.7045 </r>
       <r>   -13.5416     5.6127    45.1794 </r>
       <r>   -13.4434     3.6138    45.7379 </r>
       <r>   -13.3451     5.2814    46.1313 </r>
       <r>   -13.2468     5.7047    46.7009 </r>
       <r>   -13.1486     5.8679    47.2497 </r>
       <r>   -13.0503     5.8219    47.8746 </r>
       <r>   -12.9520     6.7996    48.4265 </r>
       <r>   -12.8538     6.2080    49.0781 </r>
       <r>   -12.7555     6.6289    49.7129 </r>
       <r>   -12.6572     6.5534    50.3995 </r>
       <r>   -12.5590     5.2155    50.9835 </r>
       <r>   -12.4607     4.9748    51.4894 </r>
       <r>   -12.3624     8.1945    51.9655 </r>
       <r>   -12.2642     2.4576    52.5865 </r>
       <r>   -12.1659     6.0016    52.8562 </r>
       <r>   -12.0676     6.0532    53.3409 </r>
       <r>   -11.9694    13.6005    54.2673 </r>
       <r>   -11.8711     6.3433    55.0020 </r>
       <r>   -11.7728     5.6560    55.5133 </r>
       <r>   -11.6746     6.0809    56.1451 </r>
       <r>   -11.5763     6.0796    56.7646 </r>
       <r>   -11.4780     7.3660    57.4273 </r>
       <r>   -11.3798     5.5378    58.1243 </r>
       <r>   -11.2815     5.8070    58.6945 </r>
       <r>   -11.1832     7.7408    59.4271 </r>
       <r>   -11.0850     7.3578    60.1438 </r>
       <r>   -10.9867     9.7463    61.1871 </r>
       <r>   -10.8884    10.5415    62.2188 </r>
       <r>   -10.7902     5.7061    63.2794 </r>
       <r>   -10.6919     9.4808    64.0101 </r>
       <r>   -10.5936     9.6597    65.0498 </r>
       <r>   -10.4954     9.2636    65.9520 </r>
       <r>   -10.3971     9.6397    66.9425 </r>
       <r>   -10.2988     9.9203    67.9588 </r>
       <r>   -10.2006     8.9155    68.6821 </r>
       <r>   -10.1023    13.7224    69.9347 </r>
       <r>   -10.0040    14.4868    71.3051 </r>
       <r>    -9.9058    10.8941    72.3549 </r>
       <r>    -9.8075    18.3759    73.3319 </r>
       <r>    -9.7092    10.6422    74.4913 </r>
       <r>    -9.6110    16.8310    75.9219 </r>
       <r>    -9.5127    13.5122    77.3384 </r>
       <r>    -9.4144    17.1352    78.6711 </r>
       <r>    -9.3162     8.3602    80.0351 </r>
       <r>    -9.2179    12.8349    81.0979 </r>
       <r>    -9.1196    25.2283    82.7032 </r>
       <r>    -9.0214    11.6083    84.2663 </r>
       <r>    -8.9231    10.7847    85.3407 </r>
       <r>    -8.8248    16.0221    86.5939 </r>
       <r>    -8.7266     5.2525    87.8343 </r>
       <r>    -8.6283    10.3511    88.8432 </r>
       <r>    -8.5300    10.1156    89.8909 </r>
       <r>    -8.4318    10.6230    91.2362 </r>
       <r>    -8.3335     4.1477    92.4100 </r>
       <r>    -8.2352     6.3609    93.0843 </r>
       <r>    -8.1370    13.8664    94.2606 </r>
       <r>    -8.0387     7.3478    95.2902 </r>
       <r>    -7.9405    11.4693    96.2542 </r>
       <r>    -7.8422    10.3708    97.4707 </r>
       <r>    -7.7439     8.5012    98.5334 </r>
       <r>    -7.6457     8.6938    99.5421 </r>
       <r>    -7.5474     9.3685   100.4994 </r>
       <r>    -7.4491     8.0861   101.1711 </r>
       <r>    -7.3509     9.9908   102.0288 </r>
       <r>    -7.2526     7.0618   102.9793 </r>
       <r>    -7.1543     8.8047   103.6167 </r>
       <r>    -7.0561     8.1068   104.5912 </r>
       <r>    -6.9578     9.2777   105.5367 </r>
       <r>    -6.8595     9.1944   106.5712 </r>
       <r>    -6.7613     8.6081   107.4240 </r>
       <r>    -6.6630     7.9083   108.2681 </r>
       <r>    -6.5647    12.0279   109.3057 </r>
       <r>    -6.4665     7.5465   110.2130 </r>
       <r>    -6.3682     6.7478   110.8822 </r>
       <r>    -6.2699     5.0190   111.5036 </r>
       <r>    -6.1717     3.7469   112.0299 </r>
       <r>    -6.0734     6.1793   112.4374 </r>
       <r>    -5.9751     4.8418   112.9298 </r>
       <r>    -5.8769     9.7661   113.5871 </r>
       <r>    -5.7786     5.7819   114.3807 </r>
       <r>    -5.6803     6.9997   115.0804 </r>
       <r>    -5.5821     8.5978   115.7705 </r>
       <r>    -5.4838    10.6216   116.4253 </r>
       <r>    -5.3855     5.4937   117.1835 </r>
       <r>    -5.2873     3.8191   117.7337 </r>
       <r>    -5.1890     6.2001   118.1789 </r>
       <r>    -5.0907     5.3312   118.6514 </r>
       <r>    -4.9925     4.0936   119.1024 </r>
       <r>    -4.8942     3.5308   119.5107 </r>
       <r>    -4.7959     4.4463   119.8971 </r>
       <r>    -4.6977     2.7043   120.4630 </r>
       <r>    -4.5994     3.9018   120.8394 </r>
       <r>    -4.5011     3.8927   121.1960 </r>
       <r>    -4.4029     1.9790   121.5013 </r>
       <r>    -4.3046     2.2129   121.6996 </r>
       <r>    -4.2063     3.7212   121.9533 </r>
       <r>    -4.1081     2.5945   122.3916 </r>
       <r>    -4.0098     3.8153   122.7979 </r>
       <r>    -3.9115     3.7374   123.1609 </r>
       <r>    -3.8133     2.8534   123.5220 </r>
       <r>    -3.7150     1.8342   123.7335 </r>
       <r>    -3.6167     1.3184   123.8717 </r>
       <r>    -3.5185     0.1719   123.9991 </r>
       <r>    -3.4202     0.0469   124.0006 </r>
       <r>    -3.3219     0.2322   124.0143 </r>
       <r>    -3.2237     0.4176   124.0462 </r>
       <r>    -3.1254     0.7995   124.1003 </r>
       <r>    -3.0271     2.0897   124.2406 </r>
       <r>    -2.9289     3.1846   124.6379 </r>
       <r>    -2.8306     8.3411   125.0651 </r>
       <r>    -2.7323     3.4117   125.4299 </r>
       <r>    -2.6341     5.6292   125.8650 </r>
       <r>    -2.5358     0.0000   126.0000 </r>
       <r>    -2.4375     0.0000   126.0000 </r>
       <r>    -2.3393     0.4155   126.0050 </r>
       <r>    -2.2410     1.1465   126.1057 </r>
       <r>    -2.1427     1.9764   126.2369 </r>
       <r>    -2.0445     2.1751   126.4362 </r>
       <r>    -1.9462     4.1146   126.7064 </r>
       <r>    -1.8479     2.1792   126.9834 </r>
       <r>    -1.7497     1.7934   127.1758 </r>
       <r>    -1.6514     2.3898   127.3728 </r>
       <r>    -1.5531     3.3268   127.7474 </r>
       <r>    -1.4549     6.0579   128.2111 </r>
       <r>    -1.3566     7.9779   128.7699 </r>
       <r>    -1.2583     3.6518   129.3600 </r>
       <r>    -1.1601     6.7009   129.9752 </r>
       <r>    -1.0618     7.7746   130.7201 </r>
       <r>    -0.9635     5.7341   131.5673 </r>
       <r>    -0.8653     6.7450   132.0629 </r>
       <r>    -0.7670    10.0174   132.6979 </r>
       <r>    -0.6687     4.4331   133.5452 </r>
       <r>    -0.5705     1.5500   133.9615 </r>
       <r>    -0.4722     1.7415   134.0544 </r>
       <r>    -0.3739     5.3418   134.4658 </r>
       <r>    -0.2757     4.1923   135.0191 </r>
       <r>    -0.1774     4.2464   135.3651 </r>
       <r>    -0.0792     4.1260   135.8267 </r>
       <r>     0.0191     4.0839   136.2335 </r>
       <r>     0.1174     5.8595   136.7373 </r>
       <r>     0.2156     5.0232   137.3957 </r>
       <r>     0.3139     5.7204   138.1648 </r>
       <r>     0.4122     8.2277   138.9261 </r>
       <r>     0.5104     7.3789   139.7201 </r>
       <r>     0.6087    10.9752   140.7588 </r>
       <r>     0.7070     6.7515   141.7193 </r>
       <r>     0.8052     7.9122   142.6462 </r>
       <r>     0.9035     9.0368   143.4468 </r>
       <r>     1.0018     5.0915   144.1476 </r>
       <r>     1.1000     8.5106   144.7706 </r>
       <r>     1.1983     6.9792   145.5108 </r>
       <r>     1.2966     7.0298   146.1727 </r>
       <r>     1.3948    11.4652   147.0222 </r>
       <r>     1.4931    16.0353   148.5817 </r>
       <r>     1.5914    12.1273   149.6828 </r>
       <r>     1.6896     9.1565   151.1222 </r>
       <r>     1.7879    15.0209   152.3606 </r>
       <r>     1.8862    12.7427   154.0518 </r>
       <r>     1.9844    21.1459   155.4975 </r>
       <r>     2.0827    10.5735   157.1040 </r>
       <r>     2.1810    12.9197   158.6121 </r>
       <r>     2.2792    15.1615   159.8060 </r>
       <r>     2.3775    19.7928   161.7988 </r>
       <r>     2.4758    24.7768   163.9547 </r>
       <r>     2.5740    17.6089   165.8600 </r>
       <r>     2.6723    17.0519   167.5475 </r>
       <r>     2.7706    17.3835   169.4088 </r>
       <r>     2.8688    27.3776   171.7039 </r>
       <r>     2.9671    17.0649   173.7408 </r>
       <r>     3.0654    24.3573   175.9490 </r>
       <r>     3.1636    17.6608   177.8787 </r>
       <r>     3.2619    22.2108   180.0835 </r>
       <r>     3.3602    24.8127   181.9278 </r>
       <r>     3.4584    26.3306   184.5550 </r>
       <r>     3.5567    25.8745   187.2535 </r>
       <r>     3.6550    18.0986   189.5535 </r>
       <r>     3.7532    11.6334   191.0762 </r>
       <r>     3.8515     7.1627   191.7824 </r>
       <r>     3.9498     0.7845   191.9860 </r>
       <r>     4.0480     0.0000   192.0000 </r>
       <r>     4.1463     0.0000   192.0000 </r>
       <r>     4.2446     0.0000   192.0000 </r>
       <r>     4.3428     0.0000   192.0000 </r>
       <r>     4.4411     0.0000   192.0000 </r>
       <r>     4.5394     0.0000   192.0000 </r>
       <r>     4.6376     0.0000   192.0000 </r>
       <r>     4.7359     0.0000   192.0000 </r>
       <r>     4.8342     0.0000   192.0000 </r>
       <r>     4.9324     0.0000   192.0000 </r>
       <r>     5.0307     0.0000   192.0000 </r>
       <r>     5.1290     0.0000   192.0000 </r>
       <r>     5.2272     0.0000   192.0000 </r>
       <r>     5.3255     0.0000   192.0000 </r>
      </set>
     </set>
    </array>
   </total>
  </dos>
 </calculation>
 <structure name="finalpos" >
  <crystal>
   <varray name="basis" >
    <v>       9.83174697       0.15492140      -0.01230162 </v>
    <v>       5.05666457       8.43319271      -0.01309993 </v>
    <v>      -0.06179162      -0.04043584      49.95911364 </v>
   </varray>
   <i name="volume">   4103.11460630 </i>
   <varray name="rec_basis" >
    <v>       0.10268158      -0.06156925       0.00007717 </v>
    <v>      -0.00188619       0.11971018       0.00009456 </v>
    <v>       0.00002479       0.00001623       0.02001641 </v>
   </varray>
  </crystal>
  <varray name="positions" >
   <v>       0.99544674       0.99532884       0.38332420 </v>
   <v>       0.07621937       0.07609588       0.38281028 </v>
   <v>       0.08072663       0.08079999       0.45296520 </v>
   <v>       0.16194303       0.16201211       0.44984677 </v>
   <v>       0.00371592       0.24214890       0.38345710 </v>
   <v>       0.11073808       0.29697992       0.38496213 </v>
   <v>       0.07972366       0.33093164       0.44995755 </v>
   <v>       0.16103111       0.41120087       0.44515490 </v>
   <v>       0.02341468       0.47455419       0.38653733 </v>
   <v>       0.09357675       0.57242044       0.38868242 </v>
   <v>       0.09407637       0.57309794       0.45131532 </v>
   <v>       0.19193482       0.64326725       0.45345952 </v>
   <v>       0.00217451       0.74246258       0.38520318 </v>
   <v>       0.08227197       0.82742722       0.38444252 </v>
   <v>       0.09338535       0.82162603       0.45423049 </v>
   <v>       0.16857850       0.91100516       0.45430280 </v>
   <v>       0.24226819       0.00359612       0.38346304 </v>
   <v>       0.29709884       0.11061909       0.38496521 </v>
   <v>       0.33086387       0.07978533       0.44995421 </v>
   <v>       0.41114516       0.16108350       0.44515596 </v>
   <v>       0.35141575       0.35135261       0.40778606 </v>
   <v>       0.31518967       0.31521129       0.43221407 </v>
   <v>       0.25546030       0.50548059       0.39484387 </v>
   <v>       0.33574196       0.58677838       0.39004627 </v>
   <v>       0.36950657       0.55594452       0.45503556 </v>
   <v>       0.42433759       0.66296787       0.45653778 </v>
   <v>       0.24951612       0.75128408       0.38535003 </v>
   <v>       0.33097687       0.83592832       0.38445986 </v>
   <v>       0.33562920       0.83063532       0.45554091 </v>
   <v>       0.41708987       0.91527952       0.45464984 </v>
   <v>       0.47467079       0.02329662       0.38654035 </v>
   <v>       0.57252898       0.09346652       0.38868374 </v>
   <v>       0.57302969       0.09414293       0.45131654 </v>
   <v>       0.64319113       0.19200946       0.45346265 </v>
   <v>       0.50557486       0.25536263       0.39484508 </v>
   <v>       0.58688219       0.33563221       0.39004326 </v>
   <v>       0.55586767       0.36958343       0.45503880 </v>
   <v>       0.66289004       0.42441485       0.45654411 </v>
   <v>       0.50466280       0.50455176       0.39015466 </v>
   <v>       0.58587961       0.58576414       0.38703641 </v>
   <v>       0.59038645       0.59046780       0.45719023 </v>
   <v>       0.67115853       0.67123443       0.45667454 </v>
   <v>       0.49802714       0.75555878       0.38569833 </v>
   <v>       0.57322055       0.84493793       0.38576967 </v>
   <v>       0.58433412       0.83913643       0.45555569 </v>
   <v>       0.66443161       0.92410031       0.45479459 </v>
   <v>       0.74257584       0.00205937       0.38520227 </v>
   <v>       0.82754309       0.08215318       0.38443793 </v>
   <v>       0.82154891       0.09346273       0.45423363 </v>
   <v>       0.91092864       0.16865533       0.45430844 </v>
   <v>       0.75139448       0.24940070       0.38534251 </v>
   <v>       0.83604472       0.33085682       0.38445102 </v>
   <v>       0.83056123       0.33570707       0.45555033 </v>
   <v>       0.91521137       0.41716322       0.45465792 </v>
   <v>       0.75567731       0.49790835       0.38569303 </v>
   <v>       0.84505709       0.57310115       0.38576669 </v>
   <v>       0.83906271       0.58441078       0.45556063 </v>
   <v>       0.92402906       0.66450481       0.45479565 </v>
   <v>       0.74968894       0.74957052       0.38576866 </v>
   <v>       0.83127999       0.83116326       0.38468506 </v>
   <v>       0.83532576       0.83540055       0.45531259 </v>
   <v>       0.91691688       0.91699334       0.45423059 </v>
  </varray>
  <varray name="velocities" >
   <v>       0.00000000       0.00000000       0.00000000 </v>
   <v>       0.00000000       0.00000000       0.00000000 </v>
   <v>       0.00000000       0.00000000       0.00000000 </v>
   <v>       0.00000000       0.00000000       0.00000000 </v>
   <v>       0.00000000       0.00000000       0.00000000 </v>
   <v>       0.00000000       0.00000000       0.00000000 </v>
   <v>       0.00000000       0.00000000       0.00000000 </v>
   <v>       0.00000000       0.00000000       0.00000000 </v>
   <v>       0.00000000       0.00000000       0.00000000 </v>
   <v>       0.00000000       0.00000000       0.00000000 </v>
   <v>       0.00000000       0.00000000       0.00000000 </v>
   <v>       0.00000000       0.00000000       0.00000000 </v>
   <v>       0.00000000       0.00000000       0.00000000 </v>
   <v>       0.00000000       0.00000000       0.00000000 </v>
   <v>       0.00000000       0.00000000       0.00000000 </v>
   <v>       0.00000000       0.00000000       0.00000000 </v>
   <v>       0.00000000       0.00000000       0.00000000 </v>
   <v>       0.00000000       0.00000000       0.00000000 </v>
   <v>       0.00000000       0.00000000       0.00000000 </v>
   <v>       0.00000000       0.00000000       0.00000000 </v>
   <v>       0.00000000       0.00000000       0.00000000 </v>
   <v>       0.00000000       0.00000000       0.00000000 </v>
   <v>       0.00000000       0.00000000       0.00000000 </v>
   <v>       0.00000000       0.00000000       0.00000000 </v>
   <v>       0.00000000       0.00000000       0.00000000 </v>
   <v>       0.00000000       0.00000000       0.00000000 </v>
   <v>       0.00000000       0.00000000       0.00000000 </v>
   <v>       0.00000000       0.00000000       0.00000000 </v>
   <v>       0.00000000       0.00000000       0.00000000 </v>
   <v>       0.00000000       0.00000000       0.00000000 </v>
   <v>       0.00000000       0.00000000       0.00000000 </v>
   <v>       0.00000000       0.00000000       0.00000000 </v>
   <v>       0.00000000       0.00000000       0.00000000 </v>
   <v>       0.00000000       0.00000000       0.00000000 </v>
   <v>       0.00000000       0.00000000       0.00000000 </v>
   <v>       0.00000000       0.00000000       0.00000000 </v>
   <v>       0.00000000       0.00000000       0.00000000 </v>
   <v>       0.00000000       0.00000000       0.00000000 </v>
   <v>       0.00000000       0.00000000       0.00000000 </v>
   <v>       0.00000000       0.00000000       0.00000000 </v>
   <v>       0.00000000       0.00000000       0.00000000 </v>
   <v>       0.00000000       0.00000000       0.00000000 </v>
   <v>       0.00000000       0.00000000       0.00000000 </v>
   <v>       0.00000000       0.00000000       0.00000000 </v>
   <v>       0.00000000       0.00000000       0.00000000 </v>
   <v>       0.00000000       0.00000000       0.00000000 </v>
   <v>       0.00000000       0.00000000       0.00000000 </v>
   <v>       0.00000000       0.00000000       0.00000000 </v>
   <v>       0.00000000       0.00000000       0.00000000 </v>
   <v>       0.00000000       0.00000000       0.00000000 </v>
   <v>       0.00000000       0.00000000       0.00000000 </v>
   <v>       0.00000000       0.00000000       0.00000000 </v>
   <v>       0.00000000       0.00000000       0.00000000 </v>
   <v>       0.00000000       0.00000000       0.00000000 </v>
   <v>       0.00000000       0.00000000       0.00000000 </v>
   <v>       0.00000000       0.00000000       0.00000000 </v>
   <v>       0.00000000       0.00000000       0.00000000 </v>
   <v>       0.00000000       0.00000000       0.00000000 </v>
   <v>       0.00000000       0.00000000       0.00000000 </v>
   <v>       0.00000000       0.00000000       0.00000000 </v>
   <v>       0.00000000       0.00000000       0.00000000 </v>
   <v>       0.00000000       0.00000000       0.00000000 </v>
  </varray>
 </structure>
</modeling>
