unknown system                          
           1
     9.831747    0.154921   -0.012302
     5.056665    8.433193   -0.013100
    -0.061792   -0.040436   49.959114
   C 
  62
Direct configuration=     1
   0.99544674  0.99532884  0.38332420
   0.07621937  0.07609588  0.38281028
   0.08072663  0.08079999  0.45296520
   0.16194303  0.16201211  0.44984677
   0.00371592  0.24214890  0.38345710
   0.11073808  0.29697992  0.38496213
   0.07972366  0.33093164  0.44995755
   0.16103111  0.41120087  0.44515490
   0.02341468  0.47455419  0.38653733
   0.09357675  0.57242044  0.38868242
   0.09407637  0.57309794  0.45131532
   0.19193482  0.64326725  0.45345952
   0.00217451  0.74246258  0.38520318
   0.08227197  0.82742722  0.38444252
   0.09338535  0.82162603  0.45423049
   0.16857850  0.91100516  0.45430280
   0.24226819  0.00359612  0.38346304
   0.29709884  0.11061909  0.38496521
   0.33086387  0.07978533  0.44995421
   0.41114516  0.16108350  0.44515596
   0.35141575  0.35135261  0.40778606
   0.31518967  0.31521129  0.43221407
   0.25546030  0.50548059  0.39484387
   0.33574196  0.58677838  0.39004627
   0.36950657  0.55594452  0.45503556
   0.42433759  0.66296787  0.45653778
   0.24951612  0.75128408  0.38535003
   0.33097687  0.83592832  0.38445986
   0.33562920  0.83063532  0.45554091
   0.41708987  0.91527952  0.45464984
   0.47467079  0.02329662  0.38654035
   0.57252898  0.09346652  0.38868374
   0.57302969  0.09414293  0.45131654
   0.64319113  0.19200946  0.45346265
   0.50557486  0.25536263  0.39484508
   0.58688219  0.33563221  0.39004326
   0.55586767  0.36958343  0.45503880
   0.66289004  0.42441485  0.45654411
   0.50466280  0.50455176  0.39015466
   0.58587961  0.58576414  0.38703641
   0.59038645  0.59046780  0.45719023
   0.67115853  0.67123443  0.45667454
   0.49802714  0.75555878  0.38569833
   0.57322055  0.84493793  0.38576967
   0.58433412  0.83913643  0.45555569
   0.66443161  0.92410031  0.45479459
   0.74257584  0.00205937  0.38520227
   0.82754309  0.08215318  0.38443793
   0.82154891  0.09346273  0.45423363
   0.91092864  0.16865533  0.45430844
   0.75139448  0.24940070  0.38534251
   0.83604472  0.33085682  0.38445102
   0.83056123  0.33570707  0.45555033
   0.91521137  0.41716322  0.45465792
   0.75567731  0.49790835  0.38569303
   0.84505709  0.57310115  0.38576669
   0.83906271  0.58441078  0.45556063
   0.92402906  0.66450481  0.45479565
   0.74968894  0.74957052  0.38576866
   0.83127999  0.83116326  0.38468506
   0.83532576  0.83540055  0.45531259
   0.91691688  0.91699334  0.45423059
