32
Lattice="9.845246113252266 -0.0035957070570298583 4.382239758019321e-07 4.926147740459885 8.524495780146678 5.190477587845736e-07 2.219777990571994e-06 1.7536112296459818e-06 49.98122778937358" Properties=species:S:1:pos:R:3:forces:R:3 energy=-298.1354820691338 stress="4.95975171378882e-07 5.66120499273059e-07 2.845072459248767e-14 5.66120499273059e-07 6.599684618134521e-07 5.041182413680834e-14 2.845072459248767e-14 5.041182413680834e-14 3.236040859571269e-20" pbc="T T T"
C       14.77038553       8.52000965      23.39121556      -0.00967173       0.00143025       0.00000001
C        1.22974751       0.70921324      23.39121469       0.00967236      -0.00142994      -0.00000000
C       11.07577473       2.12663781      23.39121517      -0.00967181       0.00143019       0.00000000
C        2.46128445       2.84033720      23.39121481       0.00967214      -0.00143027      -0.00000000
C       12.30731167       4.25776177      23.39121530      -0.00967197       0.00142988       0.00000001
C        3.69282139       4.97146115      23.39121495       0.00967199      -0.00143044      -0.00000001
C       13.53884861       6.38888571      23.39121543      -0.00967203       0.00142992       0.00000000
C        4.92435832       7.10258508      23.39121508       0.00967210      -0.00143016      -0.00000000
C        7.38645095       8.52270642      23.39121523      -0.00967193       0.00143030       0.00000000
C        3.69105905       0.70831432      23.39121479       0.00967185      -0.00142996      -0.00000001
C        3.69184015       2.12933459      23.39121484      -0.00967208       0.00143013       0.00000001
C        4.92259599       2.83943827      23.39121492       0.00967184      -0.00143018      -0.00000000
C        4.92337709       4.26045855      23.39121497      -0.00967219       0.00142998       0.00000001
C        6.15413292       4.97056221      23.39121505       0.00967192      -0.00143024      -0.00000001
C        6.15491402       6.39158248      23.39121510      -0.00967197       0.00143018       0.00000000
C        7.38566985       7.10168615      23.39121518       0.00967209      -0.00142994      -0.00000000
C        9.84776250       8.52180750      23.39121534      -0.00967235       0.00143032       0.00000000
C        6.15237058       0.70741539      23.39121491       0.00967173      -0.00143007      -0.00000001
C        6.15315169       2.12843567      23.39121495      -0.00967225       0.00143016       0.00000001
C        7.38390751       2.83853934      23.39121503       0.00967192      -0.00143011      -0.00000001
C        7.38468862       4.25955961      23.39121508      -0.00967210       0.00143013       0.00000001
C        8.61544444       4.96966328      23.39121516       0.00967208      -0.00143013      -0.00000001
C        8.61622555       6.39068355      23.39121521      -0.00967203       0.00143030       0.00000001
C        9.84698138       7.10078723      23.39121529       0.00967196      -0.00143001      -0.00000000
C       12.30907402       8.52090857      23.39121546      -0.00967214       0.00143022      -0.00000001
C        8.61368210       0.70651647      23.39121501       0.00967219      -0.00143007       0.00000000
C        8.61446321       2.12753674      23.39121506      -0.00967200       0.00143021       0.00000001
C        9.84521903       2.83764041      23.39121514       0.00967223      -0.00143018      -0.00000001
C        9.84600014       4.25866069      23.39121519      -0.00967188       0.00143007       0.00000001
C       11.07675597       4.96876437      23.39121527       0.00967216      -0.00143035      -0.00000000
C       11.07753708       6.38978463      23.39121532      -0.00967210       0.00143004       0.00000001
C       12.30829291       7.09988831      23.39121541       0.00967200      -0.00143023      -0.00000002
