32
Lattice="9.859230706121359 -0.003897391285377569 4.3884706762001027e-07 4.93288817171051 8.5363820332383 5.197699269025836e-07 2.226042551090297e-06 1.7584257881915892e-06 49.98122778937348" Properties=species:S:1:pos:R:3:forces:R:3 energy=-254.60146089490252 stress="-1.3987361817831532e-06 3.215849914722466e-07 -4.6591795356773204e-14 3.215849914722466e-07 -1.27177595963774e-06 -3.1017719755074583e-14 -4.6591795356773204e-14 -3.1017719755074583e-14 3.212099011804788e-20" free_energy=-254.60146089490252 pbc="T T T"
C       14.79098393       8.53161134      23.39121556       0.00266768      -0.00037864       0.00000001
C        1.23159813       0.71015909      23.39121469      -0.00266695       0.00037901      -0.00000000
C       11.09131780       2.12932482      23.39121517       0.00266761      -0.00037872       0.00000000
C        2.46482018       2.84425461      23.39121481      -0.00266724       0.00037860      -0.00000001
C       12.32453985       4.26342034      23.39121530       0.00266742      -0.00037904       0.00000001
C        3.69804223       4.97835013      23.39121495      -0.00266739       0.00037839      -0.00000001
C       13.55776190       6.39751585      23.39121544       0.00266734      -0.00037900       0.00000000
C        4.93126427       7.11244562      23.39121508      -0.00266726       0.00037872      -0.00000000
C        7.39656091       8.53453438      23.39121523       0.00266749      -0.00037858       0.00000000
C        3.69640583       0.70918474      23.39121479      -0.00266760       0.00037895      -0.00000001
C        3.69689479       2.13224787      23.39121484       0.00266733      -0.00037877       0.00000001
C        4.92962787       2.84328026      23.39121492      -0.00266757       0.00037875      -0.00000001
C        4.93011683       4.26634338      23.39121497       0.00266711      -0.00037894       0.00000001
C        6.16284991       4.97737577      23.39121505      -0.00266746       0.00037860      -0.00000001
C        6.16333887       6.40043888      23.39121510       0.00266741      -0.00037868       0.00000001
C        7.39607195       7.11147126      23.39121518      -0.00266726       0.00037899      -0.00000000
C        9.86136860       8.53356003      23.39121534       0.00266700      -0.00037856       0.00000001
C        6.16121351       0.70821040      23.39121491      -0.00266771       0.00037886      -0.00000001
C        6.16170247       2.13127352      23.39121495       0.00266712      -0.00037879       0.00000001
C        7.39443554       2.84230591      23.39121503      -0.00266746       0.00037883      -0.00000001
C        7.39492450       4.26536903      23.39121508       0.00266727      -0.00037879       0.00000001
C        8.62765758       4.97640142      23.39121516      -0.00266731       0.00037874      -0.00000001
C        8.62814654       6.39946453      23.39121521       0.00266739      -0.00037852       0.00000001
C        9.86087963       7.11049692      23.39121529      -0.00266748       0.00037890      -0.00000000
C       12.32617627       8.53258569      23.39121546       0.00266722      -0.00037867      -0.00000000
C        8.62602117       0.70723605      23.39121501      -0.00266716       0.00037888      -0.00000000
C        8.62651013       2.13029917      23.39121506       0.00266737      -0.00037871       0.00000001
C        9.85924321       2.84133156      23.39121514      -0.00266712       0.00037874      -0.00000001
C        9.85973217       4.26439468      23.39121519       0.00266756      -0.00037883       0.00000001
C       11.09246525       4.97542708      23.39121527      -0.00266724       0.00037848      -0.00000001
C       11.09295422       6.39849019      23.39121532       0.00266730      -0.00037885       0.00000001
C       12.32568730       7.10952258      23.39121541      -0.00266740       0.00037864      -0.00000002
