32
Lattice="9.847287355498999 -0.003680096528623838 4.383136415885563e-07 4.927096646160678 8.526199931905595 5.191505879201544e-07 2.22067867878728e-06 1.7542913285537634e-06 49.981227789373534" Properties=species:S:1:pos:R:3:forces:R:3 energy=-298.19141945457545 stress="2.801440766970849e-07 1.2783709162668066e-06 5.052479051818121e-14 1.2783709162668066e-06 6.13128784003927e-07 7.95225137061655e-14 5.052479051818121e-14 7.95225137061655e-14 3.27102484414501e-20" free_energy=-298.19141945457545 pbc="T T T"
C       14.77333243       8.52163541      23.39121556      -0.00554607       0.00084199       0.00000001
C        1.23003949       0.70934188      23.39121469       0.00554664      -0.00084172      -0.00000000
C       11.07800994       2.12698547      23.39121517      -0.00554614       0.00084194       0.00000000
C        2.46181366       2.84089187      23.39121481       0.00554644      -0.00084201      -0.00000000
C       12.30978411       4.25853546      23.39121530      -0.00554628       0.00084166       0.00000001
C        3.69358783       4.97244186      23.39121495       0.00554630      -0.00084217      -0.00000001
C       13.54155827       6.39008544      23.39121544      -0.00554635       0.00084171       0.00000000
C        4.92536199       7.10399183      23.39121508       0.00554641      -0.00084192      -0.00000000
C        7.38786692       8.52439548      23.39121523      -0.00554625       0.00084205       0.00000000
C        3.69186135       0.70842185      23.39121479       0.00554618      -0.00084174      -0.00000001
C        3.69254444       2.12974554      23.39121484      -0.00554639       0.00084189       0.00000001
C        4.92363551       2.83997184      23.39121492       0.00554617      -0.00084193      -0.00000000
C        4.92431860       4.26129553      23.39121497      -0.00554649       0.00084175       0.00000000
C        6.15540967       4.97152183      23.39121505       0.00554625      -0.00084198      -0.00000001
C        6.15609276       6.39284551      23.39121510      -0.00554629       0.00084193       0.00000000
C        7.38718383       7.10307180      23.39121518       0.00554640      -0.00084172      -0.00000000
C        9.84968877       8.52347546      23.39121534      -0.00554663       0.00084206       0.00000000
C        6.15368319       0.70750183      23.39121491       0.00554607      -0.00084182      -0.00000001
C        6.15436628       2.12882552      23.39121495      -0.00554654       0.00084191       0.00000001
C        7.38545735       2.83905182      23.39121503       0.00554624      -0.00084187      -0.00000000
C        7.38614044       4.26037550      23.39121508      -0.00554641       0.00084188       0.00000001
C        8.61723150       4.97060180      23.39121516       0.00554639      -0.00084189      -0.00000001
C        8.61791460       6.39192548      23.39121521      -0.00554633       0.00084205       0.00000001
C        9.84900567       7.10215178      23.39121529       0.00554627      -0.00084178      -0.00000000
C       12.31151060       8.52255544      23.39121546      -0.00554644       0.00084196      -0.00000001
C        8.61550502       0.70658181      23.39121501       0.00554649      -0.00084183       0.00000000
C        8.61618811       2.12790549      23.39121506      -0.00554631       0.00084196       0.00000001
C        9.84727918       2.83813179      23.39121514       0.00554652      -0.00084193      -0.00000001
C        9.84796227       4.25945548      23.39121519      -0.00554620       0.00084183       0.00000001
C       11.07905334       4.96968178      23.39121527       0.00554645      -0.00084209      -0.00000000
C       11.07973644       6.39100546      23.39121532      -0.00554640       0.00084181       0.00000001
C       12.31082751       7.10123176      23.39121541       0.00554631      -0.00084199      -0.00000002
