32
Lattice="9.854889951905044 -0.0038389209380979266 1.3977620903498427e-06 4.9307655102091354 8.532666727241871 1.2399401166053848e-06 7.089413321108959e-06 3.1661636842373e-06 49.98122778933001" Properties=species:S:1:pos:R:3:forces:R:3:energies:R:1 energy=-298.1688537597656 stress="-2.3607130970049184e-06 1.485477127971535e-07 3.2984652786893776e-09 1.485477127971535e-07 -2.281805336679099e-06 2.6463867208725844e-10 3.2984652786893776e-09 2.6463867208725844e-10 1.3396021725437576e-14" free_energy=-298.1688537597656 pbc="T T T"
C       14.78454901       8.52795181      23.39121714       0.00028559      -0.00002875       0.00001642      -9.31777191
C        1.23103648       0.70985919      23.39121484      -0.00027927       0.00000826       0.00000198      -9.31777287
C       11.08647475       2.12845160      23.39121632       0.00029225      -0.00001308      -0.00000632      -9.31777382
C        2.46372804       2.84302601      23.39121510      -0.00027480       0.00000150       0.00000402      -9.31777382
C       12.31916616       4.26161822      23.39121669       0.00026875      -0.00000306       0.00000490      -9.31777287
C        3.69641946       4.97619265      23.39121542      -0.00028536       0.00001785      -0.00001383      -9.31777382
C       13.55185762       6.39478513      23.39121688       0.00025034      -0.00001490       0.00001493      -9.31777287
C        4.92911062       7.10935928      23.39121584      -0.00024630       0.00003076      -0.00001511      -9.31777382
C        7.39338159       8.53083094      23.39121619       0.00027436      -0.00003420      -0.00000770      -9.31777287
C        3.69475905       0.70889952      23.39121526      -0.00027263       0.00000416       0.00000565      -9.31777287
C        3.69530744       2.13133074      23.39121531       0.00025668      -0.00001272       0.00000791      -9.31777382
C        4.92745041       2.84206632      23.39121543      -0.00025092       0.00000317      -0.00000890      -9.31777382
C        4.92799877       4.26449735      23.39121558       0.00028897       0.00000212       0.00000274      -9.31777382
C        6.16014189       4.97523289      23.39121580      -0.00027959      -0.00000750       0.00000072      -9.31777287
C        6.16069016       6.39766427      23.39121587       0.00025770      -0.00000489       0.00000148      -9.31777382
C        7.39283321       7.10839949      23.39121611      -0.00026967       0.00004601       0.00000092      -9.31777477
C        9.85710387       8.52987124      23.39121634       0.00026395      -0.00000860       0.00000332      -9.31777382
C        6.15848158       0.70793977      23.39121561      -0.00027661       0.00000965      -0.00001225      -9.31777287
C        6.15902999       2.13037106      23.39121561       0.00025347      -0.00001763       0.00000253      -9.31777382
C        7.39117285       2.84110659      23.39121583      -0.00026657      -0.00000532       0.00000068      -9.31777382
C        7.39172122       4.26353764      23.39121592       0.00027048       0.00001736      -0.00000038      -9.31777382
C        8.62386428       4.97427316      23.39121614      -0.00026196       0.00001104      -0.00000018      -9.31777191
C        8.62441275       6.39670457      23.39121622       0.00027849      -0.00003489      -0.00000035      -9.31777382
C        9.85655564       7.10743974      23.39121655      -0.00026700       0.00003467      -0.00000038      -9.31777382
C       12.32082660       8.52891149      23.39121683       0.00027137      -0.00001599       0.00001331      -9.31777287
C        8.62220418       0.70698008      23.39121595      -0.00027261       0.00001065      -0.00001374      -9.31777382
C        8.62275239       2.12941128      23.39121595       0.00027849      -0.00000648       0.00000123      -9.31777382
C        9.85489526       2.84014683      23.39121618      -0.00029108       0.00000869       0.00000067      -9.31777382
C        9.85544385       4.26257795      23.39121627       0.00024473      -0.00001352      -0.00000039      -9.31777382
C       11.08758666       4.97331341      23.39121647      -0.00023197       0.00002196      -0.00000059      -9.31777382
C       11.08813525       6.39574485      23.39121667       0.00023603      -0.00003034       0.00000053      -9.31777382
C       12.32027805       7.10648007      23.39121673      -0.00024650       0.00002392      -0.00000384      -9.31777382
