32
Lattice="9.869799893820062 -0.0038628224526389343 4.3931765759556085e-07 4.938209833066103 8.545561120790047 5.203291188247614e-07 2.230822353312886e-06 1.7622164344226999e-06 49.98122778937361" Properties=species:S:1:pos:R:3:forces:R:3 energy=-258.10309169869447 stress="2.4955632468839233e-07 1.0272065827883432e-09 1.2180196195376959e-14 1.0272065827883432e-09 2.4843265881376e-07 8.587476454294546e-15 1.2180196195376959e-14 8.587476454294546e-15 3.961239734152473e-20" free_energy=-258.10309169869447 pbc="T T T"
C       14.80689548       8.54082094      23.39121556       0.00061743      -0.00008520       0.00000001
C        1.23289928       0.71092907      23.39121469      -0.00061669       0.00008557      -0.00000000
C       11.10323811       2.13165010      23.39121517       0.00061736      -0.00008527       0.00000000
C        2.46745175       2.84731936      23.39121482      -0.00061699       0.00008516      -0.00000001
C       12.33779058       4.26804039      23.39121530       0.00061719      -0.00008560       0.00000001
C        3.70200421       4.98370965      23.39121495      -0.00061713       0.00008494      -0.00000001
C       13.57234304       6.40443067      23.39121544       0.00061708      -0.00008556       0.00000000
C        4.93655667       7.12009992      23.39121508      -0.00061700       0.00008528      -0.00000000
C        7.40454557       8.54371805      23.39121524       0.00061723      -0.00008513       0.00000000
C        3.70034928       0.70996336      23.39121480      -0.00061735       0.00008553      -0.00000001
C        3.70088820       2.13454722      23.39121484       0.00061707      -0.00008535       0.00000001
C        4.93490174       2.84635365      23.39121492      -0.00061733       0.00008531      -0.00000001
C        4.93544067       4.27093750      23.39121497       0.00061687      -0.00008551       0.00000001
C        6.16945419       4.98274393      23.39121506      -0.00061720       0.00008517      -0.00000001
C        6.16999311       6.40732778      23.39121511       0.00061715      -0.00008524       0.00000000
C        7.40400664       7.11913420      23.39121518      -0.00061701       0.00008555      -0.00000000
C        9.87199556       8.54275234      23.39121535       0.00061674      -0.00008510       0.00000000
C        6.16779926       0.70899766      23.39121491      -0.00061746       0.00008542      -0.00000001
C        6.16833818       2.13358151      23.39121495       0.00061685      -0.00008534       0.00000001
C        7.40235171       2.84538794      23.39121503      -0.00061722       0.00008541      -0.00000001
C        7.40289064       4.26997179      23.39121508       0.00061700      -0.00008537       0.00000001
C        8.63690416       4.98177822      23.39121516      -0.00061705       0.00008531      -0.00000001
C        8.63744309       6.40636206      23.39121521       0.00061712      -0.00008507       0.00000001
C        9.87145662       7.11816850      23.39121530      -0.00061722       0.00008545      -0.00000000
C       12.33944553       8.54178664      23.39121546       0.00061696      -0.00008522      -0.00000001
C        8.63524921       0.70803195      23.39121502      -0.00061689       0.00008544      -0.00000000
C        8.63578815       2.13261580      23.39121506       0.00061712      -0.00008528       0.00000001
C        9.86980167       2.84442224      23.39121514      -0.00061685       0.00008529      -0.00000001
C        9.87034060       4.26900609      23.39121519       0.00061732      -0.00008539       0.00000001
C       11.10435413       4.98081253      23.39121527      -0.00061698       0.00008504      -0.00000001
C       11.10489307       6.40539637      23.39121533       0.00061704      -0.00008542       0.00000001
C       12.33890659       7.11720280      23.39121541      -0.00061714       0.00008519      -0.00000002
