32
Lattice="9.854323835359994 -0.004993466096873 4.386183517e-07 4.92948209159795 8.531309007450664 5.194503395e-07 2.2235787635e-06 1.7560451074e-06 49.98122778937349" Properties=species:S:1:pos:R:3:forces:R:3:energies:R:1 energy=-298.1686096191406 stress="-3.850699431495741e-05 -1.9511284335749224e-05 -3.0195820843736954e-10 -1.9511284335749224e-05 -4.389623427414335e-05 -2.022936040901868e-09 -3.0195820843736954e-10 -2.022936040901868e-09 -9.423928481924315e-15" free_energy=-298.1686096191406 pbc="T T T"
C       14.78244812       8.52547662      23.39121556       0.02419788      -0.00362333      -0.00001883      -9.31777000
C        1.23112951       0.70961178      23.39121469      -0.02420417       0.00364035      -0.00000008      -9.31776905
C       11.08533657       2.12699487      23.39121517       0.02418433      -0.00365574       0.00000453      -9.31777096
C        2.46350004       2.84243906      23.39121481      -0.02417926       0.00366021      -0.00000602      -9.31777000
C       12.31770710       4.25982215      23.39121530       0.02418320      -0.00366618       0.00000420      -9.31777096
C        3.69587058       4.97526631      23.39121495      -0.02417819       0.00364655       0.00000492      -9.31777000
C       13.55007762       6.39264941      23.39121544       0.02420131      -0.00362464      -0.00001346      -9.31776905
C        4.92824111       7.10809355      23.39121508      -0.02420932       0.00363051       0.00001710      -9.31776905
C        7.39170527       8.52922173      23.39121523       0.02421017      -0.00363050       0.00000431      -9.31777000
C        3.69471050       0.70836342      23.39121480      -0.02419714       0.00364010       0.00000493      -9.31776905
C        3.69459371       2.13073997      23.39121484       0.02420296      -0.00365811       0.00000070      -9.31777000
C        4.92708103       2.84119068      23.39121492      -0.02420336       0.00366767      -0.00000043      -9.31776905
C        4.92696424       4.26356724      23.39121497       0.02419558      -0.00367226      -0.00000069      -9.31776905
C        6.15945155       4.97401794      23.39121505      -0.02418844       0.00364207       0.00000034      -9.31777096
C        6.15933474       6.39639448      23.39121510       0.02419884      -0.00363248      -0.00000176      -9.31777000
C        7.39182205       7.10684516      23.39121518      -0.02419747       0.00363203       0.00000001      -9.31777000
C        9.85528626       8.52797335      23.39121534       0.02416878      -0.00363174      -0.00002231      -9.31777000
C        6.15829147       0.70711507      23.39121491      -0.02419316       0.00364496       0.00001519      -9.31777000
C        6.15817468       2.12949160      23.39121495       0.02421247      -0.00365299      -0.00000150      -9.31777096
C        7.39066199       2.83994232      23.39121503      -0.02421168       0.00366784      -0.00000036      -9.31776905
C        7.39054519       4.26231886      23.39121508       0.02418896      -0.00367090       0.00000016      -9.31776905
C        8.62303249       4.97276956      23.39121516      -0.02420290       0.00364534      -0.00000013      -9.31777096
C        8.62291572       6.39514611      23.39121521       0.02421777      -0.00362350      -0.00000142      -9.31776905
C        9.85540301       7.10559680      23.39121529      -0.02420710       0.00362730       0.00000970      -9.31776905
C       12.31886720       8.52672498      23.39121546       0.02420771      -0.00363151      -0.00001353      -9.31777096
C        8.62187241       0.70586670      23.39121501      -0.02418252       0.00364426       0.00001567      -9.31776905
C        8.62175562       2.12824323      23.39121506       0.02420748      -0.00365733      -0.00000163      -9.31777000
C        9.85424292       2.83869395      23.39121514      -0.02422243       0.00366573      -0.00000041      -9.31777000
C        9.85412614       4.26107050      23.39121519       0.02421946      -0.00366861      -0.00000048      -9.31776905
C       11.08661344       4.97152120      23.39121527      -0.02421812       0.00364473      -0.00000199      -9.31777000
C       11.08649668       6.39389777      23.39121532       0.02421560      -0.00362877       0.00000843      -9.31776905
C       12.31898398       7.10434845      23.39121541      -0.02421711       0.00362967      -0.00000515      -9.31777000
