62
Lattice="9.783571430623327 -0.039962046959600935 0.024862877636381706 4.863765368066209 8.489917555805624 0.025738532389164227 0.12739711353638503 0.0785860039862465 49.8432416580963" Properties=species:S:1:pos:R:3:forces:R:3:energies:R:1 energy=-565.1328735351562 stress="-1.3968846133138868e-06 5.185544793562258e-08 -8.116182925732573e-08 5.185544793562258e-08 -1.6217494476222782e-06 -5.351424547939132e-08 -8.116182925732573e-08 -5.351424547939132e-08 -1.0075059719838464e-07" free_energy=-565.1328735351562 pbc="T T T"
C       14.62044893       8.43666524      19.25340936      -0.00038388      -0.00023559      -0.00111641      -9.27058601
C        1.19330937       0.69083250      19.23713951       0.00000011      -0.00022450      -0.00971736      -9.30632877
C        1.36623218       0.79024998      22.63181677       0.00027418      -0.00006837      -0.00997322      -9.36727619
C        2.60050766       1.50216806      22.64737886       0.00002858      -0.00007487      -0.00768309      -9.30263805
C       10.96878743       2.06683008      19.28820345       0.00006299      -0.00005544      -0.00949914      -9.32435036
C        2.41802383       2.81424382      19.27958145       0.00033122       0.00002798      -0.00757616      -9.29078293
C        2.59264857       2.91592990      22.62393385      -0.00012177      -0.00012547      -0.00341433      -9.11822414
C        3.84312681       3.62566752      22.51188376      -0.00020510       0.00015239      -0.00050539      -9.04176235
C       12.18285812       4.18709831      19.30263275      -0.00001751       0.00005341       0.00019328      -9.25193596
C        3.63397371       4.93309686      19.37529549      -0.00036970       0.00018086       0.00411798      -9.17734814
C        3.79299451       5.05353558      22.47792850      -0.00020571       0.00029700       0.00432141      -9.27880859
C        4.99447341       5.76842569      22.31386070      -0.00040856      -0.00029715       0.00083305      -8.89975548
C       13.39000602       6.31240402      19.34479689      -0.00056183       0.00023154       0.00827904      -9.21765232
C        4.83309152       7.05815880      19.32481660      -0.00042206       0.00007968       0.00356158      -9.16020203
C        5.00568194       7.15753014      22.58953528       0.00001435       0.00023931      -0.00326478      -9.15971375
C        6.23055828       7.86635731      22.59487044       0.00010370       0.00022691      -0.00825720      -9.21816158
C        7.27875677       8.46493892      19.28796388       0.00005198      -0.00038376      -0.00914174      -9.32447338
C        3.64459846       0.68781749      19.27889210       0.00022940       0.00006703      -0.00741679      -9.29096031
C        3.82017238       0.78721468      22.62438560      -0.00005557       0.00009598      -0.00386532      -9.11865807
C        5.06055054       1.51403527      22.51274484       0.00015163       0.00029770      -0.00109720      -9.04110146
C        3.65305368       2.10963954      19.35219463       0.00053731       0.00025916      -0.00733237      -9.27791214
C        4.87239715       2.81286206      19.63107493       0.00013262       0.00017330      -0.00290513      -9.25416946
C        5.03893986       2.90820634      22.46221573      -0.00021791       0.00044173      -0.00236461      -7.97924805
C        4.84237163       4.23877865      19.70655062      -0.00018440      -0.00003400       0.00083061      -9.02917862
C        5.95018846       5.04294936      20.20237857      -0.00030434       0.00002022       0.00131947      -8.61537361
C        6.19112676       5.18337596      21.70986906      -0.00045662      -0.00140886       0.00055325      -8.61338997
C        7.44134703       5.73875446      22.20694904      -0.00003627      -0.00068324       0.00010656      -9.02958107
C        6.04140587       6.37243249      19.59904392       0.00002190       0.00001264       0.00042199      -8.89904976
C        7.26126607       7.05515671      19.43546624      -0.00025481      -0.00023522      -0.00343996      -9.27842331
C        7.44528604       7.13203519      22.53939779       0.00001036      -0.00004098      -0.00409569      -9.17685318
C        8.67456556       7.84692062      22.63791686      -0.00008144       0.00000285      -0.00061200      -9.25260162
C        9.72184139       8.45392935      19.30254116       0.00007518       0.00003232       0.00059228      -9.25260735
C        6.08735707       0.67889809      19.37528846       0.00001247       0.00002562       0.00412797      -9.17685890
C        6.27137776       0.75577862      22.47924486       0.00024393       0.00023407       0.00342622      -9.27841854
C        7.49123631       1.43850102      22.31563323       0.00001442      -0.00001922      -0.00039491      -8.89905739
C        6.09129768       2.07218144      19.70772498       0.00001600       0.00068010      -0.00005907      -9.02958012
C        7.34151687       2.62756112      20.20479855       0.00047293       0.00140486      -0.00044769      -8.61339474
C        7.58245996       2.76798249      21.71228894       0.00026718      -0.00001247      -0.00130534      -8.61536503
C        8.69027496       3.57215483      22.20812405       0.00018367       0.00004417      -0.00075419      -9.02918148
C        8.49369828       4.90272540      19.45248452       0.00023997      -0.00043339       0.00239027      -7.97925854
C        8.66024732       4.99807225      22.28361595      -0.00010302      -0.00017144       0.00296187      -9.25417614
C        9.87958748       5.70129326      22.56253327      -0.00052433      -0.00027592       0.00732758      -9.27791405
C        8.47209066       6.29689741      19.40196970      -0.00014437      -0.00030825       0.00107759      -9.04110909
C        9.71246973       7.02371798      19.29034055       0.00004633      -0.00011122       0.00382842      -9.11865807
C        9.88804393       7.12311618      22.63584711      -0.00026062      -0.00006916       0.00734999      -9.29095078
C       11.11765206       7.83591443      22.65251630      -0.00003739       0.00037920       0.00908056      -9.32447338
C       12.16585024       8.43449447      19.34554331      -0.00012702      -0.00020138       0.00830367      -9.21816635
C        8.52696111       0.65340397      19.32513713      -0.00001879      -0.00026341       0.00330091      -9.15972710
C        8.69955228       0.75277454      22.58985703       0.00040227      -0.00009300      -0.00351571      -9.16018581
C        9.92620925       1.45856728      22.59474373       0.00053218      -0.00023333      -0.00825760      -9.21764851
C        8.53816866       2.04250688      19.60081662       0.00038753       0.00030126      -0.00078346      -8.89975262
C        9.73964982       2.75739819      19.43678565       0.00020563      -0.00027925      -0.00432225      -9.27881622
C        9.89866922       2.87783690      22.53939484       0.00040965      -0.00016768      -0.00407499      -9.17733955
C       11.13335410       3.58387288      22.63695533      -0.00001852      -0.00005645      -0.00023392      -9.25193024
C        9.68951371       4.18526563      19.40283485       0.00018734      -0.00015090       0.00047237      -9.04177094
C       10.93999271       4.89500364      19.29079696       0.00013638       0.00011678       0.00338651      -9.11822319
C       11.11461858       4.99668960      22.63516216      -0.00034252      -0.00004333       0.00750970      -9.29077053
C       12.34742859       5.70414131      22.65140426      -0.00003342       0.00006220       0.00941218      -9.32434940
C       10.93213438       6.30876513      19.26734316      -0.00003346       0.00007127       0.00764172      -9.30264091
C       12.16641022       7.02068303      19.28287676      -0.00024816       0.00007281       0.00996805      -9.36728191
C       12.33933391       7.12010167      22.67759659       0.00001299       0.00022054       0.00963145      -9.30632877
C       13.55953234       7.82422470      22.71188533       0.00038179       0.00025206       0.00110002      -9.27059269
