62
Lattice="9.856087710576293 -0.013808461289488611 -0.2830769264325136 4.922700339700876 8.538756124694734 -0.2830862926569573 -1.4363908353472556 -0.828403644049515 48.21550351208555" Properties=species:S:1:pos:R:3:forces:R:3 energy=-485.00825368148276 stress="2.070586496207747e-06 1.1804351834332936e-08 1.684856806620045e-07 1.1804351834332936e-08 2.0571524581731667e-06 1.1457489343603644e-07 1.684856806620045e-07 1.1457489343603644e-07 6.56105075992553e-08" free_energy=-485.00825368148276 pbc="T T T"
C       14.13314961       8.15279598      18.06099001       0.00010974       0.00003807       0.00526400
C        0.58365231       0.33693147      18.57586223       0.00021791       0.00007905       0.00663839
C        0.66715593       0.38449418      21.83271141      -0.00005000      -0.00003627      -0.00019163
C        1.89701996       1.09393275      21.78621697      -0.00003150       0.00000440       0.00082441
C       10.43148387       1.74989900      18.30554886       0.00001109       0.00003426       0.00442132
C        1.81590176       2.47319818      18.54484038      -0.00040394      -0.00012555       0.00082843
C        1.88993588       2.52012442      21.75696888      -0.00007317       0.00001490       0.00102415
C        3.14245443       3.23074657      21.62613105      -0.00015513      -0.00004272       0.00059595
C       11.67391747       3.88223847      18.22557328      -0.00033615      -0.00028810      -0.00143444
C        3.05538354       4.60325732      18.54603482      -0.00037328      -0.00025849      -0.00374460
C        3.14356437       4.66733846      21.55032755      -0.00009013      -0.00037180      -0.00221378
C        4.34107474       5.39535755      21.35553185      -0.00024709      -0.00055281      -0.00168133
C       12.90286147       6.01599955      18.17509896       0.00000152      -0.00013742      -0.00025920
C        4.27866906       6.74668119      18.43392672       0.00032576      -0.00005908       0.00366299
C        4.35739082       6.79146104      21.54739687      -0.00006479      -0.00028413      -0.00301055
C        5.59469516       7.49895692      21.52329815       0.00014136      -0.00008313       0.00055119
C        6.73729721       8.15419113      18.30512692       0.00010043      -0.00005995       0.00500166
C        3.04985903       0.33402190      18.54479256      -0.00027239      -0.00031587       0.00113851
C        3.12801438       0.37373764      21.75699595      -0.00004375      -0.00002601       0.00074390
C        4.37026185       1.10218674      21.62646697      -0.00013917      -0.00006886       0.00008376
C        3.05654271       1.76334491      18.57879328      -0.00060309      -0.00035486      -0.00305324
C        4.29734397       2.47909027      18.73824820      -0.00017728      -0.00005482      -0.01029516
C        4.27401619       2.46504179      21.50887448      -0.00032789      -0.00013742       0.00332724
C        4.26643409       3.90302457      18.79258815       0.00030513      -0.00007934      -0.00622103
C        5.35492731       4.74219625      19.26428245       0.00053240      -0.00032940      -0.00014334
C        5.55372032       4.85651001      20.71653077       0.00005223      -0.00092950       0.00099749
C        6.82507321       5.37840192      21.18865696      -0.00003310      -0.00043354       0.00660479
C        5.49538663       6.06176132      18.62540127       0.00060854       0.00007800       0.00287880
C        6.72512814       6.73392746      18.43090809       0.00044000      -0.00010396       0.00329408
C        6.82525172       6.77730136      21.43528606       0.00042632       0.00015646       0.00393149
C        8.05703906       7.49448641      21.47321846       0.00039139       0.00017573       0.00124989
C        9.20520867       8.16206785      18.22579349      -0.00039213      -0.00017547      -0.00126583
C        5.51429576       0.34049633      18.54679623      -0.00042531      -0.00015461      -0.00392139
C        5.61441936       0.38387178      21.55117748      -0.00044040       0.00010280      -0.00329657
C        6.84416011       1.05603701      21.35667008      -0.00060613      -0.00007710      -0.00285764
C        5.51447508       1.73939717      18.79341626       0.00003344       0.00043356      -0.00657915
C        6.78582814       2.26129046      19.26553885      -0.00005076       0.00092770      -0.00096936
C        6.98462246       2.37560215      20.71778718      -0.00053336       0.00033157       0.00017142
C        8.07311431       3.21477422      21.18948578      -0.00030504       0.00007971       0.00624555
C        8.06552915       4.65275554      18.47321436       0.00033269       0.00014005      -0.00332092
C        8.04220439       4.63870867      21.24382978       0.00017682       0.00005463       0.01031389
C        9.28300501       5.35445370      21.40330420       0.00060160       0.00035400       0.00303705
C        7.96928566       6.01561170      18.35562666       0.00013923       0.00006892      -0.00009117
C        9.21153320       6.74406068      18.22510670       0.00004244       0.00002584      -0.00076498
C        9.28968911       6.78377702      21.43730997       0.00026955       0.00031434      -0.00116596
C       10.52495135       7.50236446      21.39388161      -0.00010314       0.00005760      -0.00502259
C       11.66755214       8.15759706      18.17569346      -0.00013994       0.00008486      -0.00053891
C        7.98215617       0.32633700      18.43467280       0.00006671       0.00028577       0.00303101
C        8.06087782       0.37111706      21.54814305      -0.00032339       0.00005996      -0.00364286
C        9.29277292       1.08799031      21.52390299       0.00000058       0.00013776       0.00026995
C        7.99847229       1.72244025      18.62654008       0.00024898       0.00055457       0.00170189
C        9.19598390       2.45045965      18.43175989       0.00008869       0.00037194       0.00220888
C        9.28416317       2.51454160      21.43604938       0.00037514       0.00025809       0.00375216
C       10.52171734       3.22175169      21.47345078       0.00033583       0.00028711       0.00141451
C        9.19709307       3.88705197      18.35596432       0.00015513       0.00004263      -0.00060567
C       10.44961150       4.59767427      18.22513596       0.00007233      -0.00001592      -0.00104863
C       10.52364648       4.64460068      21.43726433       0.00040098       0.00012366      -0.00085895
C       11.76415262       5.35409117      21.39347067      -0.00001465      -0.00003556      -0.00444453
C       10.44252755       6.02386574      18.19588470       0.00003066      -0.00000487      -0.00084477
C       11.67239114       6.73330406      18.14937670       0.00005081       0.00003677       0.00018945
C       11.75589561       6.78086727      21.40622724      -0.00021998      -0.00008027      -0.00665549
C       12.98518588       7.48995013      21.35492072      -0.00010940      -0.00003785      -0.00525452
