62
Lattice="9.792021761554384 -0.04027105323922224 -0.1964265096428501 4.867716985579801 8.496785760056898 -0.19582669507975042 -1.0072846978650576 -0.5775675113441836 52.07176814757576" Properties=species:S:1:pos:R:3:forces:R:3 energy=-565.0412697422491 stress="-1.4562156430705464e-06 -2.7934500166932586e-08 -1.3842746445385758e-07 -2.7934500166932586e-08 -1.4204743597891315e-06 -8.536315384586057e-08 -1.3842746445385758e-07 -8.536315384586057e-08 3.763438620654963e-08" free_energy=-565.0412697422491 pbc="T T T"
C       14.18532568       8.18439609      19.71201454       0.00032552       0.00019472       0.00436315
C        0.74631667       0.43212833      20.05593286       0.00008478       0.00000419       0.00099134
C        0.84985330       0.49144022      23.56135555      -0.00047096      -0.00031583      -0.00473423
C        2.08680998       1.20495512      23.57501450      -0.00046107      -0.00029370       0.00081164
C       10.53588173       1.80795226      19.85170893      -0.00019455      -0.00009914      -0.00123561
C        1.97942597       2.55899260      20.03180208      -0.00016290      -0.00003655      -0.00082915
C        2.07638987       2.62175460      23.56285383      -0.00053273      -0.00012624       0.00331482
C        3.32840247       3.33138717      23.46962282      -0.00040624       0.00021007       0.00665742
C       11.75394089       3.93143121      19.84399007       0.00017018       0.00003440      -0.00030811
C        3.19042043       4.67647172      20.15635939      -0.00033054       0.00003463       0.00315444
C        3.28680508       4.76398108      23.37847448       0.00057844       0.00003534       0.00335783
C        4.47319838       5.47446388      23.11817315       0.00049824      -0.00049749       0.00017585
C       12.96077719       6.06019712      19.87845969       0.00022351       0.00032278       0.00585293
C        4.39439417       6.81087302      20.03218794       0.00013381       0.00036113       0.00483549
C        4.49650925       6.86943584      23.34854220      -0.00036601       0.00003520      -0.00454467
C        5.72506185       7.57483183      23.30597535      -0.00036645      -0.00012055      -0.00565286
C        6.83863273       8.21782195      19.85184572      -0.00016898      -0.00020672      -0.00104362
C        3.20480004       0.43468542      20.03153785      -0.00012079      -0.00015686      -0.00075337
C        3.30797427       0.48651621      23.56284589      -0.00034533      -0.00038763       0.00322081
C        4.54909775       1.21490300      23.46981965      -0.00001092      -0.00032449       0.00644963
C        3.21664828       1.85707731      20.08709142      -0.00041564      -0.00024186       0.00053026
C        4.44001353       2.56271528      20.35070640      -0.00104342      -0.00058472       0.00175479
C        4.51720743       2.60673625      23.45965808      -0.00120820      -0.00056017       0.00936675
C        4.40077126       3.98156284      20.46236817      -0.00091097      -0.00047011       0.00234419
C        5.48332383       4.82569198      20.96555138      -0.00052414      -0.00120725      -0.00035810
C        5.66985364       4.93341554      22.41443768       0.00114404      -0.00046285       0.00096094
C        6.94245476       5.44760838      22.91799919       0.00079894       0.00039901      -0.00200736
C        5.61365991       6.13262880      20.26205996       0.00012143      -0.00068523       0.00034391
C        6.82253836       6.80412518      20.00196703      -0.00031719      -0.00060901      -0.00298222
C        6.94688623       6.84316275      23.22433184       0.00012055       0.00019718      -0.00294831
C        8.17200146       7.55363701      23.34066924      -0.00011823      -0.00015957       0.00026966
C        9.28659326       8.20892531      19.84425704       0.00011823       0.00015960      -0.00027094
C        5.64399160       0.42261392      20.15641915      -0.00012057      -0.00019723       0.00294936
C        5.76833946       0.46165151      23.37878559       0.00031709       0.00060889       0.00298151
C        6.97721768       1.13314783      23.11869091      -0.00012114       0.00068524      -0.00034255
C        5.64842321       1.81816827      20.46275221      -0.00079917      -0.00039906       0.00200807
C        6.92102444       2.33236113      20.96631324      -0.00114439       0.00046274      -0.00095962
C        7.10755416       2.44008485      22.41519954       0.00052384       0.00120702       0.00035942
C        8.19010663       3.28421390      22.91838328       0.00091082       0.00046996      -0.00234357
C        8.07367006       4.65904019      19.92109509       0.00120861       0.00056040      -0.00936807
C        8.15086435       4.70306139      23.03004634       0.00104322       0.00058461      -0.00175567
C        9.37422944       5.40869927      23.29366300       0.00041557       0.00024181      -0.00053321
C        8.04177998       6.05087351      19.91093356       0.00001093       0.00032461      -0.00645102
C        9.28290344       6.77926033      19.81790700       0.00034538       0.00038770      -0.00322200
C        9.38607775       6.83109121      23.34921654       0.00012063       0.00015675       0.00075042
C       10.61996211       7.54474051      23.33308126       0.00016878       0.00020654       0.00104153
C       11.73353284       8.18773060      19.87894682       0.00036672       0.00012057       0.00565630
C        8.09436841       0.39634082      20.03220699       0.00036632      -0.00003517       0.00454782
C        8.19648359       0.45490345      23.34856127      -0.00013363      -0.00036088      -0.00483238
C        9.42212236       1.16530834      23.30586276      -0.00022335      -0.00032256      -0.00584964
C        8.11767932       1.79131254      20.26257777      -0.00049809       0.00049775      -0.00017452
C        9.30407281       2.50179553      20.00227829      -0.00057861      -0.00003537      -0.00335872
C        9.40045741       2.58930491      23.22439176       0.00033051      -0.00003463      -0.00315363
C       10.62895857       3.29407433      23.34033662      -0.00017014      -0.00003444       0.00030651
C        9.26247520       3.93438945      19.91113053       0.00040635      -0.00021012      -0.00665901
C       10.51448780       4.64402198      19.81789923       0.00053281       0.00012623      -0.00331625
C       10.61145182       4.70678401      23.34895247       0.00016273       0.00003646       0.00082598
C       11.84701793       5.41755332      23.33261837       0.00019428       0.00009904       0.00123334
C       10.50406770       6.06082144      19.80573722       0.00046120       0.00029377      -0.00081157
C       11.74102443       6.77433636      19.81939374       0.00047118       0.00031595       0.00473707
C       11.84456115       6.83364831      23.32481987      -0.00008489      -0.00000426      -0.00099239
C       13.06529081       7.53789521      23.27648213      -0.00032537      -0.00019463      -0.00436086
