62
Lattice="9.777937445780577 -0.0402581755716796 0.0289755375062279 4.860691241772394 8.485568733617692 0.0294192129019335 0.1485969228663461 0.0883016208718143 49.73165690037336" Properties=species:S:1:pos:R:3:forces:R:3:energies:R:1 energy=-565.127685546875 stress="-0.0006046035559847951 -8.85978588485159e-05 -1.9854876882163808e-05 -8.85978588485159e-05 -0.0005253569106571376 -1.2705135304713622e-05 -1.9854876882163808e-05 -1.2705135304713622e-05 -0.00012026440526824445" free_energy=-565.127685546875 pbc="T T T"
C       14.62025354       8.43587046      19.21787334      -0.00513022       0.00498773       0.00184299      -9.26912880
C        1.20041555       0.69419275      19.20002501       0.02853584       0.00566580      -0.03030798      -9.30615807
C        1.37446037       0.79395393      22.58608321      -0.05772781      -0.02697174      -0.00759293      -9.36886120
C        2.60652841       1.50468470      22.60067907       0.10799842       0.05412480       0.01141382      -9.29959488
C       10.97069573       2.06895959      19.25470259      -0.01504233       0.00944872      -0.01984541      -9.32320404
C        2.42428162       2.81617454      19.24126039       0.02232295       0.05775328      -0.01399539      -9.28977776
C        2.60069245       2.91879444      22.57713175      -0.00081439      -0.05848907      -0.01645917      -9.12262058
C        3.85043661       3.62723181      22.46352060       0.08642258       0.05396622       0.00959116      -9.04011154
C       12.18418708       4.19003487      19.26510071      -0.02570279      -0.12341617      -0.00584289      -9.25247002
C        3.64004074       4.93349369      19.33227651       0.04298139       0.08280227       0.00676351      -9.17833900
C        3.80094998       5.05574526      22.42791566      -0.06495801      -0.06156577       0.01563968      -9.27686977
C        5.00013510       5.77084479      22.26641472       0.07464971      -0.03517655       0.00792427      -8.89983845
C       13.39167149       6.31306172      19.30436873      -0.04129885      -0.04956423       0.01088171      -9.21495247
C        4.83880395       7.05859419      19.28305946      -0.00132447       0.00961170      -0.00063517      -9.16299057
C        5.01183544       7.15800496      22.54446547      -0.01528418       0.01407405       0.00074373      -9.16224289
C        6.23522762       7.86603576      22.55258031       0.06980050       0.00179880      -0.01148083      -9.21569824
C        7.28236294       8.46460706      19.25408701      -0.00787801      -0.00633208      -0.02081433      -9.32333183
C        3.65004708       0.69109649      19.24074228       0.06815173      -0.02072456      -0.01514277      -9.29006004
C        3.82756923       0.79096310      22.57785325      -0.05952938       0.03697784      -0.01653405      -9.12328529
C        5.06629186       1.51777884      22.46479341       0.09523304       0.04188371       0.00855473      -9.03894901
C        3.65893723       2.11210897      19.31370639      -0.01597110      -0.00180995      -0.00441863      -9.27857971
C        4.87735218       2.81483436      19.59207711       0.01148243       0.00346847      -0.01083396      -9.25137520
C        5.05070074       2.91362943      22.41627614      -0.10206673      -0.05316246      -0.00126061      -7.97937250
C        4.84796871       4.24007997      19.66579439      -0.01652871      -0.01870632      -0.03325902      -9.02948856
C        5.95536674       5.04292637      20.15906978       0.03217554       0.04063019       0.01933610      -8.61690998
C        6.19801278       5.18488383      21.66563751      -0.05378263      -0.00895449      -0.01762718      -8.61394882
C        7.44659865       5.74022747      22.16055507       0.02812207      -0.00047498       0.03494301      -9.02989388
C        6.04582644       6.37419894      19.55926670      -0.01061365      -0.07825893      -0.00821383      -8.89862156
C        7.26442094       7.05521753      19.39826004       0.08924221       0.01486205      -0.01258528      -9.27638245
C        7.45114515       7.13238773      22.49564123      -0.09873088       0.01011312      -0.00661812      -9.17755795
C        8.67739328       7.84785982      22.59286161       0.12580134      -0.04613949       0.00577547      -9.25333405
C        9.72576152       8.45253576      19.26469966      -0.12555507       0.04704487      -0.00577649      -9.25329113
C        6.09133382       0.68245078      19.33243617       0.09768900      -0.01038820       0.00663751      -9.17759323
C        6.27804152       0.75962996      22.42987309      -0.08830366      -0.01563127       0.01260328      -9.27634144
C        7.49664968       1.44063282      22.26880189       0.00986777       0.07857763       0.00814915      -8.89862251
C        6.09587180       2.07461316      19.66748934      -0.02802292       0.00066996      -0.03471881      -9.02989101
C        7.34445351       2.62995916      20.16240501       0.05368461       0.00901354       0.01774484      -8.61397076
C        7.58711232       2.77190269      21.66896979      -0.03211308      -0.04064687      -0.01910156      -8.61688614
C        8.69451106       3.57475330      22.16224836       0.01641524       0.01892444       0.03342794      -9.02946472
C        8.49176230       4.90120015      19.41182434       0.10173783       0.05375776       0.00129139      -7.97942734
C        8.66511986       5.00000741      22.23599112      -0.01142241      -0.00383072       0.01096401      -9.25138092
C        9.88352961       5.70272082      22.51443999       0.01570712       0.00245313       0.00441481      -9.27855873
C        8.47617839       6.29705869      19.36333986      -0.09560301      -0.04197562      -0.00856039      -9.03890800
C        9.71490670       7.02387291      19.25030701       0.05880801      -0.03697601       0.01646014      -9.12334728
C        9.89241381       7.12374902      22.58743716      -0.06752108       0.01978858       0.01504105      -9.29001617
C       11.12080579       7.83579240      22.60353093       0.00686578       0.00747521       0.02057791      -9.32333088
C       12.16791987       8.43437000      19.30491080      -0.06832825      -0.00163934       0.01151760      -9.21570587
C        8.53064315       0.65683195      19.28360237       0.01421483      -0.01392563      -0.00059534      -9.16222286
C        8.70366789       0.75625035      22.54501073       0.00130652      -0.01043861       0.00077540      -9.16300201
C        9.92872770       1.46151623      22.55268016       0.04244089       0.04957588      -0.01078561      -9.21491432
C        8.54232648       2.04399736      19.56165239      -0.07428996       0.03469057      -0.00799520      -8.89982891
C        9.74152436       2.75908475      19.40022166       0.06440423       0.06258188      -0.01559076      -9.27686024
C        9.90243327       2.88134367      22.49580448      -0.04336232      -0.08283810      -0.00669770      -9.17833233
C       11.13620877       3.58454883      22.59202746       0.02649060       0.12282012       0.00579732      -9.25244617
C        9.69202233       4.18761665      19.36462033      -0.08584599      -0.05509159      -0.00964397      -9.04010296
C       10.94178238       4.89603359      19.25103790       0.00000649       0.05957654       0.01635875      -9.12263298
C       11.11818332       4.99865892      22.58692644      -0.02218605      -0.05745777       0.01390283      -9.28978348
C       12.34970948       5.70562420      22.60247696       0.01534654      -0.00990085       0.01962050      -9.32316875
C       10.93592699       6.31015913      19.22747710      -0.10650850      -0.05479513      -0.01149427      -9.29955769
C       12.16802632       7.02088300      19.24202653       0.05599067       0.02693553       0.00752535      -9.36886978
C       12.34204615       7.12064918      22.62817131      -0.02779373      -0.00605939       0.03012578      -9.30620193
C       13.56084491       7.82427635      22.66864053       0.00534109      -0.00471427      -0.00191724      -9.26908779
