62
Lattice="9.797917212632385 -0.03771408707978585 -0.025399015672583933 4.872890335430951 8.50062054977955 -0.024838868530228722 -0.13207710145567478 -0.07296940847211927 51.00782067351889" Properties=species:S:1:pos:R:3:forces:R:3 energy=-565.1150472201497 stress="1.8027408805849942e-06 -1.2785876886488443e-08 -1.524151010424539e-07 -1.2785876886488443e-08 1.824015838243204e-06 -9.287146438119859e-08 -1.524151010424539e-07 -9.287146438119859e-08 -4.485737471157263e-09" pbc="T T T"
C       14.53945574       8.38858236      19.60532312       0.00009603       0.00006094      -0.00179502
C        1.08981876       0.63018744      19.64405006       0.00021839       0.00007145      -0.00494823
C        1.25469044       0.72485173      23.16352604      -0.00022809      -0.00018071      -0.00629878
C        2.48611124       1.43516794      23.15070717      -0.00024918      -0.00016434      -0.00303978
C       10.88098697       2.00997486      19.64714649       0.00027662       0.00010927      -0.00446644
C        2.32084174       2.75682969      19.70485255       0.00037680       0.00014580      -0.00046902
C        2.47498517       2.85107111      23.13201899      -0.00034834      -0.00017701       0.00002336
C        3.72193042       3.56106920      23.02734293       0.00033741       0.00003733       0.00604040
C       12.10378975       4.13272734      19.69301352       0.00020102       0.00014141       0.00254128
C        3.53848900       4.87719778      19.83720533      -0.00028754       0.00004776       0.00559037
C        3.68886864       4.99582029      22.99777120       0.00030400      -0.00000567       0.00541480
C        4.88945990       5.70406745      22.80482494       0.00017721      -0.00012975       0.00227899
C       13.30702811       6.26234935      19.71043579      -0.00001671       0.00024503       0.00571199
C        4.73802621       7.00713425      19.73414214      -0.00004620       0.00015976       0.00128572
C        4.89982043       7.10013125      23.06619061      -0.00011115       0.00006222      -0.00088154
C        6.12713309       7.81002179      23.06468689      -0.00018805       0.00002825      -0.00546045
C        7.18639561       8.41530527      19.64717187       0.00023737       0.00006817      -0.00416535
C        3.54707060       0.63105077      19.70457640       0.00031084       0.00019401      -0.00032681
C        3.70612943       0.71655260      23.13200276      -0.00029144      -0.00017831      -0.00011045
C        4.94502405       1.44038306      23.02756580       0.00022423       0.00042511       0.00576226
C        3.56011998       2.05511599      19.78481259       0.00017630       0.00008768       0.00161345
C        4.78191250       2.75982969      20.07205378      -0.00038848      -0.00020010       0.00390678
C        4.90539893       2.83054366      22.96909666       0.00073084       0.00057220       0.00970277
C        4.74845381       4.18402319      20.16830688      -0.00069310      -0.00028712       0.00435841
C        5.86105601       4.99347981      20.65768382      -0.00072662       0.00024907       0.00143346
C        6.08077697       5.12038323      22.14175669      -0.00006785       0.00036225      -0.00058139
C        7.33838763       5.67789194      22.63176064       0.00050463       0.00027428      -0.00397414
C        5.95178374       6.31713110      19.99485627      -0.00009871      -0.00021998      -0.00150159
C        7.16582029       7.00206773      19.80224144      -0.00018279      -0.00041287      -0.00484326
C        7.34410736       7.07223908      22.96316202       0.00008054       0.00015294      -0.00535533
C        8.57299667       7.78525208      23.08241371      -0.00022533      -0.00011206      -0.00263732
C        9.63609111       8.41086583      19.69327306       0.00022557       0.00011237       0.00263249
C        5.99209041       0.62325850      19.83735754      -0.00008064      -0.00015291       0.00535917
C        6.17037736       0.69343028      22.99828182       0.00018273       0.00041235       0.00484197
C        7.38441338       1.37836673      22.80566090       0.00009944       0.00021985       0.00150874
C        5.99781063       2.01760572      20.16875887      -0.00050542      -0.00027457       0.00397922
C        7.25542175       2.57511435      20.65876044       0.00006670      -0.00036267       0.00058949
C        7.47514229       2.70201866      22.14283333       0.00072550      -0.00024980      -0.00142540
C        8.58774422       3.51147482      22.63221289       0.00069246       0.00028664      -0.00435372
C        8.43079851       4.86495381      19.83143117      -0.00073026      -0.00057192      -0.00970622
C        8.55428559       4.93566812      22.72846910       0.00038782       0.00019973      -0.00390648
C        9.77607749       5.64038149      23.01571560      -0.00017603      -0.00008754      -0.00162215
C        8.39117324       6.25511451      19.77296113      -0.00022371      -0.00042500      -0.00576671
C        9.63006791       6.97894478      19.66852380       0.00029182       0.00017855       0.00010500
C        9.78912700       7.06444688      23.09595229      -0.00031085      -0.00019414       0.00031682
C       11.02269250       7.78081320      23.12851561      -0.00023763      -0.00006877       0.00415743
C       12.08195470       8.38609645      19.71098906       0.00018842      -0.00002830       0.00546939
C        8.43637695       0.59536642      19.73432314       0.00011160      -0.00006221       0.00089136
C        8.59817140       0.68836301      23.06637172       0.00004643      -0.00015935      -0.00127607
C        9.82708675       1.39543390      23.06468044       0.00001686      -0.00024469      -0.00570370
C        8.44673770       1.99142946      19.99569237      -0.00017695       0.00013055      -0.00227205
C        9.64732943       2.69967706      19.80275266      -0.00030454       0.00000587      -0.00541701
C        9.79770866       2.81829990      22.96331494       0.00028759      -0.00004790      -0.00558763
C       11.03032478       3.52505608      23.08211408      -0.00020057      -0.00014139      -0.00254761
C        9.61426704       4.13442807      19.77318459      -0.00033704      -0.00003695      -0.00604574
C       10.86121214       4.84442630      19.66850829       0.00034876       0.00017718      -0.00002990
C       11.01535593       4.93866782      23.09567683      -0.00037689      -0.00014579       0.00045798
C       12.25312827       5.64780856      23.12798140      -0.00027728      -0.00010922       0.00445769
C       10.85008616       6.26032948      19.64981707       0.00024952       0.00016453       0.00303691
C       12.08150693       6.97064567      19.63699126       0.00022857       0.00018100       0.00630413
C       12.24637901       7.06531020      23.15647338      -0.00021864      -0.00007161       0.00494291
C       13.46754945       7.76982166      23.14495483      -0.00009601      -0.00006091       0.00180053
