62
Lattice="9.570677668231243 -0.010130720519448211 -0.10106070791052177 4.783357519286612 8.329279309101466 -0.16834709403793624 -0.5026461850219867 -0.6817564897722485 44.270409894966754" Properties=species:S:1:pos:R:3:forces:R:3 energy=-489.36195298340704 stress="2.6786510034571734e-06 -3.070910219206717e-08 8.066955634337736e-10 -3.070910219206717e-08 2.5492320907522214e-06 -5.907608298333265e-10 8.066955634337736e-10 -5.907608298333265e-10 -2.5091488416373713e-07" free_energy=-489.36195298340704 pbc="T T T"
C       14.07168847       8.00859683      16.79617278      -0.00016438       0.00025477      -0.00047106
C        0.91166248       0.38673923      17.03155623      -0.00023438       0.00048403      -0.00055105
C        1.04812396       0.43472266      19.98398545      -0.00013563       0.00019813      -0.00124378
C        2.24979879       1.12961558      19.94300671      -0.00001377       0.00010808      -0.00091603
C       10.48182692       1.76545074      16.96986214      -0.00029556       0.00040801       0.00206359
C        2.11536923       2.47032035      17.06310405      -0.00005437       0.00012162       0.00053250
C        2.26065383       2.51453428      19.92511035       0.00022831       0.00009431      -0.00060084
C        3.47617478       3.20323946      19.84852972       0.00050463      -0.00021304      -0.00222846
C       11.68300065       3.84365450      16.98833067       0.00000344      -0.00009293      -0.00081927
C        3.32549732       4.54398495      17.10128300       0.00032146      -0.00038365      -0.00379884
C        3.45726174       4.60318386      19.84970802       0.00043544      -0.00034833      -0.00508906
C        4.64788223       5.30181624      19.71282049       0.00007559       0.00007958      -0.00766974
C       12.88532093       5.92279805      16.93999533       0.00014295      -0.00038427      -0.00379775
C        4.50737136       6.63008057      16.96011873      -0.00010640      -0.00021147      -0.00642028
C        4.64165776       6.68014691      19.88645297      -0.00005954      -0.00019794      -0.00564481
C        5.83250984       7.37979759      19.84098467      -0.00025000       0.00011858      -0.00554893
C        6.89768285       8.02304233      16.90051935      -0.00010988       0.00028647      -0.00304827
C        3.31804741       0.38292324      17.07536790       0.00011386       0.00026290       0.00034416
C        3.44583437       0.43790973      19.94336966      -0.00000259      -0.00001487      -0.00021013
C        4.65413514       1.13818284      19.88259322       0.00041145       0.00006735       0.00360157
C        3.32087412       1.77379886      17.08600138       0.00021039       0.00015822       0.00077167
C        4.52291133       2.46514816      17.24141938       0.00047010       0.00013853       0.00103581
C        4.67212472       2.51056106      19.84085527       0.00080535      -0.00045336       0.00082903
C        4.52905361       3.85584835      17.23638427       0.00046780      -0.00035242      -0.00489734
C        5.66744310       4.61469593      17.60499332       0.00125068       0.00004927      -0.00976243
C        5.82131904       4.76711181      19.05120727       0.00015491       0.00223088      -0.01077880
C        7.01342635       5.29456873      19.61204233      -0.00022724       0.00021634      -0.00637003
C        5.70642955       5.94009194      17.06523212       0.00018974      -0.00024912      -0.00977859
C        6.89062281       6.64003760      16.99242258      -0.00012685       0.00000464      -0.00751014
C        7.02365138       6.67668685      19.79353929      -0.00026280       0.00005259      -0.00582969
C        8.22431810       7.37424812      19.81874579      -0.00012623      -0.00005753      -0.00240631
C        9.29360741       8.00738551      16.95311869       0.00012623       0.00005751       0.00240546
C        5.71091661       0.37566747      17.14667123       0.00026282      -0.00005258       0.00582978
C        5.84394520       0.41231676      19.94778778       0.00012687      -0.00000466       0.00751044
C        7.02813846       1.11226240      19.87497746      -0.00018971       0.00024914       0.00977963
C        5.72114168       1.75778561      17.32816791       0.00022725      -0.00021634       0.00637047
C        6.91324913       2.28524260      17.88900241      -0.00015498      -0.00223099       0.01077981
C        7.06712506       2.43765851      19.33521630      -0.00125077      -0.00004932       0.00976345
C        8.20551443       3.19650598      19.70382607      -0.00046781       0.00035244       0.00489767
C        8.06244322       4.54179324      17.09935597      -0.00080530       0.00045337      -0.00082958
C        8.21165669       4.58720619      19.69879156      -0.00047010      -0.00013855      -0.00103600
C        9.41369386       5.27855546      19.85421032      -0.00021038      -0.00015823      -0.00077259
C        8.08043282       5.91417150      17.05761807      -0.00041141      -0.00006737      -0.00360216
C        9.28873365       6.61444461      16.99684215       0.00000256       0.00001483       0.00020906
C        9.41652059       6.66943109      19.86484380      -0.00011387      -0.00026293      -0.00034510
C       10.62024268       7.35859133      19.87134435       0.00010988      -0.00028649       0.00304812
C       11.68541565       8.00183604      16.93087807       0.00025005      -0.00011855       0.00554955
C        8.09291020       0.37220740      17.05375630       0.00005960       0.00019799       0.00564597
C        8.22719662       0.42227370      19.98009045       0.00010646       0.00021155       0.00642157
C        9.41992474       1.11942552      19.89915383      -0.00014292       0.00038431       0.00379835
C        8.08668581       1.75053805      17.22738927      -0.00007558      -0.00007952       0.00767056
C        9.27730635       2.44917043      17.09050257      -0.00043549       0.00034837       0.00508910
C        9.40907070       2.50836937      19.83892764      -0.00032146       0.00038366       0.00379881
C       10.62224503       3.19856911      19.85082028      -0.00000347       0.00009290       0.00081832
C        9.25839323       3.84911484      17.09168171      -0.00050465       0.00021305       0.00222774
C       10.47391421       4.53782006      17.01510151      -0.00022836      -0.00009436       0.00059970
C       10.61919879       4.58203398      19.87710769       0.00005434      -0.00012165      -0.00053351
C       11.82341882       5.27677284      19.86928807       0.00029551      -0.00040799      -0.00206388
C       10.48476925       5.92273877      16.99720495       0.00001374      -0.00010812       0.00091504
C       11.68644406       6.61763166      16.95622495       0.00013564      -0.00019813       0.00124386
C       11.82290555       6.66561510      19.90865395       0.00023438      -0.00048401       0.00055139
C       13.01691470       7.36290605      19.87462864       0.00016443      -0.00025471       0.00047226
