  32  32   0   0
  0.1313489E+03  0.9854325E-09  0.9853072E-09  0.4998123E-08  0.5000000E-15
  1.000000000000000E-004
  CAR 
 unknown system                          
      3.96506021    -24.47024709  301     -4.04421802      1.00000000
    -24.470  0.0000E+00  0.0000E+00  0.0000E+00  0.0000E+00
    -24.375  0.0000E+00  0.0000E+00  0.0000E+00  0.0000E+00
    -24.281  0.0000E+00  0.0000E+00  0.0000E+00  0.0000E+00
    -24.186  0.0000E+00  0.0000E+00  0.0000E+00  0.0000E+00
    -24.091  0.0000E+00  0.0000E+00  0.0000E+00  0.0000E+00
    -23.996  0.0000E+00  0.0000E+00  0.0000E+00  0.0000E+00
    -23.902  0.0000E+00  0.0000E+00  0.0000E+00  0.0000E+00
    -23.807  0.0000E+00  0.0000E+00  0.0000E+00  0.0000E+00
    -23.712  0.0000E+00  0.0000E+00  0.0000E+00  0.0000E+00
    -23.617  0.0000E+00  0.0000E+00  0.0000E+00  0.0000E+00
    -23.522  0.0000E+00  0.0000E+00  0.0000E+00  0.0000E+00
    -23.428  0.0000E+00  0.0000E+00  0.0000E+00  0.0000E+00
    -23.333  0.0000E+00  0.0000E+00  0.0000E+00  0.0000E+00
    -23.238  0.0000E+00  0.0000E+00  0.0000E+00  0.0000E+00
    -23.143  0.2362E+01  0.2362E+01  0.4071E-01  0.4071E-01
    -23.048  0.2431E+01  0.2431E+01  0.2763E+00  0.2763E+00
    -22.954  0.2377E+01  0.2377E+01  0.5185E+00  0.5185E+00
    -22.859  0.2422E+01  0.2422E+01  0.7973E+00  0.7973E+00
    -22.764  0.6831E+00  0.6831E+00  0.1040E+01  0.1040E+01
    -22.669  0.3237E+01  0.3237E+01  0.1226E+01  0.1226E+01
    -22.575  0.1617E+01  0.1617E+01  0.1430E+01  0.1430E+01
    -22.480  0.1356E+01  0.1356E+01  0.1571E+01  0.1571E+01
    -22.385  0.2508E+01  0.2508E+01  0.1919E+01  0.1919E+01
    -22.290  0.2813E+01  0.2813E+01  0.2171E+01  0.2171E+01
    -22.195  0.2133E+01  0.2133E+01  0.2415E+01  0.2415E+01
    -22.101  0.2251E+01  0.2251E+01  0.2622E+01  0.2622E+01
    -22.006  0.2237E+01  0.2237E+01  0.2836E+01  0.2836E+01
    -21.911  0.3982E+01  0.3982E+01  0.3111E+01  0.3111E+01
    -21.816  0.2791E+01  0.2791E+01  0.3432E+01  0.3432E+01
    -21.722  0.1601E+01  0.1601E+01  0.3640E+01  0.3640E+01
    -21.627  0.1603E+01  0.1603E+01  0.3785E+01  0.3785E+01
    -21.532  0.8724E+00  0.8724E+00  0.4072E+01  0.4072E+01
    -21.437  0.2698E+01  0.2698E+01  0.4242E+01  0.4242E+01
    -21.342  0.1764E+01  0.1764E+01  0.4532E+01  0.4532E+01
    -21.248  0.1983E+01  0.1983E+01  0.4709E+01  0.4709E+01
    -21.153  0.2201E+01  0.2201E+01  0.4908E+01  0.4908E+01
    -21.058  0.2633E+01  0.2633E+01  0.5130E+01  0.5130E+01
    -20.963  0.5031E+01  0.5031E+01  0.5533E+01  0.5533E+01
    -20.868  0.2913E+01  0.2913E+01  0.6021E+01  0.6021E+01
    -20.774  0.1818E+01  0.1818E+01  0.6245E+01  0.6245E+01
    -20.679  0.7230E+00  0.7230E+00  0.6365E+01  0.6365E+01
    -20.584  0.8037E+00  0.8037E+00  0.6434E+01  0.6434E+01
    -20.489  0.9731E+00  0.9731E+00  0.6518E+01  0.6518E+01
    -20.395  0.1142E+01  0.1142E+01  0.6618E+01  0.6618E+01
    -20.300  0.6760E+01  0.6760E+01  0.7007E+01  0.7007E+01
    -20.205  0.4079E+01  0.4079E+01  0.7521E+01  0.7521E+01
    -20.110  0.1337E+01  0.1337E+01  0.7821E+01  0.7821E+01
    -20.015  0.1391E+01  0.1391E+01  0.7950E+01  0.7950E+01
    -19.921  0.1444E+01  0.1444E+01  0.8084E+01  0.8084E+01
    -19.826  0.2879E+01  0.2879E+01  0.8378E+01  0.8378E+01
    -19.731  0.2831E+01  0.2831E+01  0.8649E+01  0.8649E+01
    -19.636  0.4719E+01  0.4719E+01  0.8960E+01  0.8960E+01
    -19.541  0.2262E+01  0.2262E+01  0.9286E+01  0.9286E+01
    -19.447  0.1131E+01  0.1131E+01  0.9442E+01  0.9442E+01
    -19.352  0.1002E+01  0.1002E+01  0.9543E+01  0.9543E+01
    -19.257  0.2424E+01  0.2424E+01  0.9813E+01  0.9813E+01
    -19.162  0.2404E+01  0.2404E+01  0.1004E+02  0.1004E+02
    -19.068  0.2384E+01  0.2384E+01  0.1027E+02  0.1027E+02
    -18.973  0.2836E+01  0.2836E+01  0.1050E+02  0.1050E+02
    -18.878  0.6115E+01  0.6115E+01  0.1086E+02  0.1086E+02
    -18.783  0.3493E+01  0.3493E+01  0.1150E+02  0.1150E+02
    -18.688  0.3029E+01  0.3029E+01  0.1180E+02  0.1180E+02
    -18.594  0.1584E+01  0.1584E+01  0.1200E+02  0.1200E+02
    -18.499  0.1560E+00  0.1560E+00  0.1203E+02  0.1203E+02
    -18.404  0.1130E+01  0.1130E+01  0.1206E+02  0.1206E+02
    -18.309  0.1986E+01  0.1986E+01  0.1221E+02  0.1221E+02
    -18.214  0.2842E+01  0.2842E+01  0.1244E+02  0.1244E+02
    -18.120  0.3698E+01  0.3698E+01  0.1275E+02  0.1275E+02
    -18.025  0.9269E+01  0.9269E+01  0.1339E+02  0.1339E+02
    -17.930  0.3292E+01  0.3292E+01  0.1396E+02  0.1396E+02
    -17.835  0.3960E+01  0.3960E+01  0.1429E+02  0.1429E+02
    -17.741  0.1018E+01  0.1018E+01  0.1456E+02  0.1456E+02
    -17.646  0.1240E+01  0.1240E+01  0.1466E+02  0.1466E+02
    -17.551  0.1461E+01  0.1461E+01  0.1479E+02  0.1479E+02
    -17.456  0.1683E+01  0.1683E+01  0.1494E+02  0.1494E+02
    -17.361  0.1904E+01  0.1904E+01  0.1511E+02  0.1511E+02
    -17.267  0.1936E+01  0.1936E+01  0.1532E+02  0.1532E+02
    -17.172  0.1102E+01  0.1102E+01  0.1551E+02  0.1551E+02
    -17.077  0.9889E+00  0.9889E+00  0.1561E+02  0.1561E+02
    -16.982  0.8764E+00  0.8764E+00  0.1570E+02  0.1570E+02
    -16.887  0.7863E+00  0.7863E+00  0.1577E+02  0.1577E+02
    -16.793  0.1261E+01  0.1261E+01  0.1587E+02  0.1587E+02
    -16.698  0.2631E+01  0.2631E+01  0.1603E+02  0.1603E+02
    -16.603  0.2736E+01  0.2736E+01  0.1639E+02  0.1639E+02
    -16.508  0.1724E+01  0.1724E+01  0.1660E+02  0.1660E+02
    -16.414  0.2004E+01  0.2004E+01  0.1678E+02  0.1678E+02
    -16.319  0.1212E+02  0.1212E+02  0.1706E+02  0.1706E+02
    -16.224  0.2993E+01  0.2993E+01  0.1735E+02  0.1735E+02
    -16.129  0.3791E+01  0.3791E+01  0.1766E+02  0.1766E+02
    -16.034  0.4611E+01  0.4611E+01  0.1806E+02  0.1806E+02
    -15.940  0.5275E+01  0.5275E+01  0.1857E+02  0.1857E+02
    -15.845  0.3844E+01  0.3844E+01  0.1907E+02  0.1907E+02
    -15.750  0.2451E+01  0.2451E+01  0.1937E+02  0.1937E+02
    -15.655  0.1059E+01  0.1059E+01  0.1953E+02  0.1953E+02
    -15.561  0.5814E+00  0.5814E+00  0.1960E+02  0.1960E+02
    -15.466  0.1422E+01  0.1422E+01  0.1968E+02  0.1968E+02
    -15.371  0.2781E+01  0.2781E+01  0.1988E+02  0.1988E+02
    -15.276  0.4771E+01  0.4771E+01  0.2023E+02  0.2023E+02
    -15.181  0.4064E+01  0.4064E+01  0.2065E+02  0.2065E+02
    -15.087  0.3358E+01  0.3358E+01  0.2100E+02  0.2100E+02
    -14.992  0.2367E+01  0.2367E+01  0.2128E+02  0.2128E+02
    -14.897  0.2320E+01  0.2320E+01  0.2151E+02  0.2151E+02
    -14.802  0.1473E+01  0.1473E+01  0.2176E+02  0.2176E+02
    -14.707  0.1528E+01  0.1528E+01  0.2191E+02  0.2191E+02
    -14.613  0.1584E+01  0.1584E+01  0.2205E+02  0.2205E+02
    -14.518  0.2722E+01  0.2722E+01  0.2228E+02  0.2228E+02
    -14.423  0.2169E+01  0.2169E+01  0.2251E+02  0.2251E+02
    -14.328  0.1617E+01  0.1617E+01  0.2269E+02  0.2269E+02
    -14.234  0.2507E+01  0.2507E+01  0.2308E+02  0.2308E+02
    -14.139  0.9956E+00  0.9956E+00  0.2324E+02  0.2324E+02
    -14.044  0.2142E+01  0.2142E+01  0.2340E+02  0.2340E+02
    -13.949  0.2294E+01  0.2294E+01  0.2361E+02  0.2361E+02
    -13.854  0.2447E+01  0.2447E+01  0.2384E+02  0.2384E+02
    -13.760  0.2973E+01  0.2973E+01  0.2409E+02  0.2409E+02
    -13.665  0.3065E+01  0.3065E+01  0.2438E+02  0.2438E+02
    -13.570  0.4508E+01  0.4508E+01  0.2482E+02  0.2482E+02
    -13.475  0.3053E+01  0.3053E+01  0.2519E+02  0.2519E+02
    -13.380  0.2990E+01  0.2990E+01  0.2548E+02  0.2548E+02
    -13.286  0.2058E+01  0.2058E+01  0.2568E+02  0.2568E+02
    -13.191  0.2471E+01  0.2471E+01  0.2589E+02  0.2589E+02
    -13.096  0.7063E+01  0.7063E+01  0.2633E+02  0.2633E+02
    -13.001  0.3027E+01  0.3027E+01  0.2679E+02  0.2679E+02
    -12.907  0.1206E+01  0.1206E+01  0.2694E+02  0.2694E+02
    -12.812  0.1437E+01  0.1437E+01  0.2707E+02  0.2707E+02
    -12.717  0.1668E+01  0.1668E+01  0.2722E+02  0.2722E+02
    -12.622  0.1898E+01  0.1898E+01  0.2739E+02  0.2739E+02
    -12.527  0.3638E+01  0.3638E+01  0.2763E+02  0.2763E+02
    -12.433  0.2684E+01  0.2684E+01  0.2796E+02  0.2796E+02
    -12.338  0.7678E+01  0.7678E+01  0.2842E+02  0.2842E+02
    -12.243  0.6245E+01  0.6245E+01  0.2908E+02  0.2908E+02
    -12.148  0.2022E+01  0.2022E+01  0.2950E+02  0.2950E+02
    -12.053  0.1758E+01  0.1758E+01  0.2968E+02  0.2968E+02
    -11.959  0.1493E+01  0.1493E+01  0.2983E+02  0.2983E+02
    -11.864  0.1228E+01  0.1228E+01  0.2996E+02  0.2996E+02
    -11.769  0.3161E+00  0.3161E+00  0.3012E+02  0.3012E+02
    -11.674  0.3046E+01  0.3046E+01  0.3033E+02  0.3033E+02
    -11.580  0.3248E+01  0.3248E+01  0.3063E+02  0.3063E+02
    -11.485  0.8472E+01  0.8472E+01  0.3129E+02  0.3129E+02
    -11.390  0.5753E+01  0.5753E+01  0.3203E+02  0.3203E+02
    -11.295  0.3657E+01  0.3657E+01  0.3247E+02  0.3247E+02
    -11.200  0.5604E+01  0.5604E+01  0.3275E+02  0.3275E+02
    -11.106  0.2874E+01  0.2874E+01  0.3313E+02  0.3313E+02
    -11.011  0.4608E+01  0.4608E+01  0.3347E+02  0.3347E+02
    -10.916  0.6694E+01  0.6694E+01  0.3405E+02  0.3405E+02
    -10.821  0.7273E+01  0.7273E+01  0.3471E+02  0.3471E+02
    -10.727  0.8625E+01  0.8625E+01  0.3567E+02  0.3567E+02
    -10.632  0.7146E+01  0.7146E+01  0.3637E+02  0.3637E+02
    -10.537  0.4215E+01  0.4215E+01  0.3701E+02  0.3701E+02
    -10.442  0.4624E+01  0.4624E+01  0.3743E+02  0.3743E+02
    -10.347  0.2734E+01  0.2734E+01  0.3782E+02  0.3782E+02
    -10.253  0.7848E+01  0.7848E+01  0.3842E+02  0.3842E+02
    -10.158  0.1638E+02  0.1638E+02  0.3924E+02  0.3924E+02
    -10.063  0.9387E+01  0.9387E+01  0.4030E+02  0.4030E+02
     -9.968  0.5572E+01  0.5572E+01  0.4125E+02  0.4125E+02
     -9.873  0.1021E+02  0.1021E+02  0.4159E+02  0.4159E+02
     -9.779  0.1084E+02  0.1084E+02  0.4250E+02  0.4250E+02
     -9.684  0.8167E+01  0.8167E+01  0.4346E+02  0.4346E+02
     -9.589  0.4262E+01  0.4262E+01  0.4405E+02  0.4405E+02
     -9.494  0.5690E+01  0.5690E+01  0.4451E+02  0.4451E+02
     -9.400  0.8221E+01  0.8221E+01  0.4511E+02  0.4511E+02
     -9.305  0.3657E+01  0.3657E+01  0.4555E+02  0.4555E+02
     -9.210  0.5943E+01  0.5943E+01  0.4600E+02  0.4600E+02
     -9.115  0.6532E+01  0.6532E+01  0.4679E+02  0.4679E+02
     -9.020  0.5148E+01  0.5148E+01  0.4728E+02  0.4728E+02
     -8.926  0.4571E+01  0.4571E+01  0.4780E+02  0.4780E+02
     -8.831  0.4489E+01  0.4489E+01  0.4823E+02  0.4823E+02
     -8.736  0.2730E+01  0.2730E+01  0.4898E+02  0.4898E+02
     -8.641  0.6412E+01  0.6412E+01  0.4931E+02  0.4931E+02
     -8.546  0.5355E+01  0.5355E+01  0.4988E+02  0.4988E+02
     -8.452  0.4399E+01  0.4399E+01  0.5035E+02  0.5035E+02
     -8.357  0.3532E+01  0.3532E+01  0.5072E+02  0.5072E+02
     -8.262  0.3502E+01  0.3502E+01  0.5105E+02  0.5105E+02
     -8.167  0.4084E+01  0.4084E+01  0.5138E+02  0.5138E+02
     -8.073  0.8988E+01  0.8988E+01  0.5196E+02  0.5196E+02
     -7.978  0.4815E+01  0.4815E+01  0.5262E+02  0.5262E+02
     -7.883  0.5183E+01  0.5183E+01  0.5323E+02  0.5323E+02
     -7.788  0.5372E+00  0.5372E+00  0.5364E+02  0.5364E+02
     -7.693  0.4971E+00  0.4971E+00  0.5369E+02  0.5369E+02
     -7.599  0.3522E+01  0.3522E+01  0.5380E+02  0.5380E+02
     -7.504  0.7813E+01  0.7813E+01  0.5442E+02  0.5442E+02
     -7.409  0.5719E+01  0.5719E+01  0.5502E+02  0.5502E+02
     -7.314  0.5417E+01  0.5417E+01  0.5552E+02  0.5552E+02
     -7.219  0.5017E+01  0.5017E+01  0.5607E+02  0.5607E+02
     -7.125  0.3911E+01  0.3911E+01  0.5654E+02  0.5654E+02
     -7.030  0.3298E+01  0.3298E+01  0.5688E+02  0.5688E+02
     -6.935  0.3130E+01  0.3130E+01  0.5718E+02  0.5718E+02
     -6.840  0.3812E+01  0.3812E+01  0.5765E+02  0.5765E+02
     -6.746  0.3187E+01  0.3187E+01  0.5798E+02  0.5798E+02
     -6.651  0.2982E+01  0.2982E+01  0.5827E+02  0.5827E+02
     -6.556  0.3678E+01  0.3678E+01  0.5858E+02  0.5858E+02
     -6.461  0.4373E+01  0.4373E+01  0.5896E+02  0.5896E+02
     -6.366  0.2263E+02  0.2263E+02  0.5960E+02  0.5960E+02
     -6.272  0.1027E+01  0.1027E+01  0.6001E+02  0.6001E+02
     -6.177  0.4476E+00  0.4476E+00  0.6005E+02  0.6005E+02
     -6.082  0.3203E+01  0.3203E+01  0.6022E+02  0.6022E+02
     -5.987  0.4145E+01  0.4145E+01  0.6073E+02  0.6073E+02
     -5.893  0.3490E+01  0.3490E+01  0.6110E+02  0.6110E+02
     -5.798  0.2835E+01  0.2835E+01  0.6140E+02  0.6140E+02
     -5.703  0.3028E+01  0.3028E+01  0.6167E+02  0.6167E+02
     -5.608  0.4010E+01  0.4010E+01  0.6207E+02  0.6207E+02
     -5.513  0.1026E+01  0.1026E+01  0.6238E+02  0.6238E+02
     -5.419  0.1279E+01  0.1279E+01  0.6249E+02  0.6249E+02
     -5.324  0.1532E+01  0.1532E+01  0.6262E+02  0.6262E+02
     -5.229  0.1785E+01  0.1785E+01  0.6278E+02  0.6278E+02
     -5.134  0.1397E+01  0.1397E+01  0.6299E+02  0.6299E+02
     -5.039  0.1368E+01  0.1368E+01  0.6312E+02  0.6312E+02
     -4.945  0.1340E+01  0.1340E+01  0.6325E+02  0.6325E+02
     -4.850  0.1311E+01  0.1311E+01  0.6338E+02  0.6338E+02
     -4.755  0.9438E+00  0.9438E+00  0.6348E+02  0.6348E+02
     -4.660  0.9382E+00  0.9382E+00  0.6357E+02  0.6357E+02
     -4.566  0.8511E+00  0.8511E+00  0.6366E+02  0.6366E+02
     -4.471  0.7641E+00  0.7641E+00  0.6373E+02  0.6373E+02
     -4.376  0.6770E+00  0.6770E+00  0.6380E+02  0.6380E+02
     -4.281  0.5899E+00  0.5899E+00  0.6386E+02  0.6386E+02
     -4.186  0.5028E+00  0.5028E+00  0.6391E+02  0.6391E+02
     -4.092  0.4158E+00  0.4158E+00  0.6396E+02  0.6396E+02
     -3.997  0.0000E+00  0.0000E+00  0.6400E+02  0.6400E+02
     -3.902  0.0000E+00  0.0000E+00  0.6400E+02  0.6400E+02
     -3.807  0.0000E+00  0.0000E+00  0.6400E+02  0.6400E+02
     -3.712  0.0000E+00  0.0000E+00  0.6400E+02  0.6400E+02
     -3.618  0.0000E+00  0.0000E+00  0.6400E+02  0.6400E+02
     -3.523  0.0000E+00  0.0000E+00  0.6400E+02  0.6400E+02
     -3.428  0.0000E+00  0.0000E+00  0.6400E+02  0.6400E+02
     -3.333  0.0000E+00  0.0000E+00  0.6400E+02  0.6400E+02
     -3.239  0.0000E+00  0.0000E+00  0.6400E+02  0.6400E+02
     -3.144  0.4879E+00  0.4879E+00  0.6407E+02  0.6407E+02
     -3.049  0.5931E+00  0.5931E+00  0.6412E+02  0.6412E+02
     -2.954  0.6983E+00  0.6983E+00  0.6418E+02  0.6418E+02
     -2.859  0.8036E+00  0.8036E+00  0.6425E+02  0.6425E+02
     -2.765  0.9088E+00  0.9088E+00  0.6433E+02  0.6433E+02
     -2.670  0.1014E+01  0.1014E+01  0.6443E+02  0.6443E+02
     -2.575  0.1030E+01  0.1030E+01  0.6452E+02  0.6452E+02
     -2.480  0.1764E+01  0.1764E+01  0.6468E+02  0.6468E+02
     -2.385  0.1739E+01  0.1739E+01  0.6484E+02  0.6484E+02
     -2.291  0.2254E+01  0.2254E+01  0.6508E+02  0.6508E+02
     -2.196  0.1836E+01  0.1836E+01  0.6527E+02  0.6527E+02
     -2.101  0.1417E+01  0.1417E+01  0.6543E+02  0.6543E+02
     -2.006  0.5044E+01  0.5044E+01  0.6565E+02  0.6565E+02
     -1.912  0.6850E+01  0.6850E+01  0.6616E+02  0.6616E+02
     -1.817  0.8474E+01  0.8474E+01  0.6692E+02  0.6692E+02
     -1.722  0.4143E+01  0.4143E+01  0.6754E+02  0.6754E+02
     -1.627  0.2248E+01  0.2248E+01  0.6784E+02  0.6784E+02
     -1.532  0.1852E+00  0.1852E+00  0.6793E+02  0.6793E+02
     -1.438  0.1196E+01  0.1196E+01  0.6803E+02  0.6803E+02
     -1.343  0.1365E+01  0.1365E+01  0.6815E+02  0.6815E+02
     -1.248  0.1533E+01  0.1533E+01  0.6829E+02  0.6829E+02
     -1.153  0.2922E+01  0.2922E+01  0.6851E+02  0.6851E+02
     -1.059  0.3768E+01  0.3768E+01  0.6883E+02  0.6883E+02
     -0.964  0.3823E+01  0.3823E+01  0.6919E+02  0.6919E+02
     -0.869  0.3660E+01  0.3661E+01  0.6963E+02  0.6963E+02
     -0.774  0.1892E+01  0.1892E+01  0.6985E+02  0.6985E+02
     -0.679  0.1898E+01  0.1898E+01  0.7003E+02  0.7003E+02
     -0.585  0.1903E+01  0.1904E+01  0.7021E+02  0.7021E+02
     -0.490  0.1089E+01  0.1089E+01  0.7041E+02  0.7041E+02
     -0.395  0.1568E+01  0.1568E+01  0.7055E+02  0.7055E+02
     -0.300  0.1696E+01  0.1697E+01  0.7070E+02  0.7070E+02
     -0.205  0.2948E+01  0.2947E+01  0.7096E+02  0.7096E+02
     -0.111  0.3394E+01  0.3394E+01  0.7126E+02  0.7126E+02
     -0.016  0.5691E+01  0.5685E+01  0.7170E+02  0.7170E+02
      0.079  0.5780E+01  0.5780E+01  0.7224E+02  0.7224E+02
      0.174  0.3248E+01  0.3254E+01  0.7278E+02  0.7278E+02
      0.268  0.2951E+01  0.2957E+01  0.7315E+02  0.7315E+02
      0.363  0.1471E+01  0.1478E+01  0.7340E+02  0.7340E+02
      0.458  0.3984E+01  0.4057E+01  0.7362E+02  0.7363E+02
      0.553  0.3243E+01  0.3244E+01  0.7394E+02  0.7394E+02
      0.648  0.7402E+01  0.7280E+01  0.7450E+02  0.7450E+02
      0.742  0.8805E+01  0.8781E+01  0.7565E+02  0.7565E+02
      0.837  0.8436E+01  0.8406E+01  0.7650E+02  0.7649E+02
      0.932  0.9942E+01  0.9918E+01  0.7731E+02  0.7731E+02
      1.027  0.9125E+01  0.9111E+01  0.7853E+02  0.7853E+02
      1.122  0.6802E+01  0.6727E+01  0.7937E+02  0.7937E+02
      1.216  0.1351E+02  0.1356E+02  0.8110E+02  0.8110E+02
      1.311  0.2470E+02  0.2497E+02  0.8232E+02  0.8233E+02
      1.406  0.2093E+02  0.2133E+02  0.8414E+02  0.8416E+02
      1.501  0.7682E+01  0.7679E+01  0.8537E+02  0.8537E+02
      1.595  0.9374E+01  0.9483E+01  0.8657E+02  0.8656E+02
      1.690  0.2326E+02  0.2359E+02  0.8808E+02  0.8809E+02
      1.785  0.1478E+02  0.1481E+02  0.8961E+02  0.8962E+02
      1.880  0.1633E+02  0.1670E+02  0.9129E+02  0.9129E+02
      1.975  0.1910E+02  0.2206E+02  0.9325E+02  0.9340E+02
      2.069  0.2111E+02  0.2113E+02  0.9499E+02  0.9520E+02
      2.164  0.2027E+02  0.2076E+02  0.9707E+02  0.9724E+02
      2.259  0.1908E+02  0.1650E+02  0.9876E+02  0.9884E+02
      2.354  0.1847E+02  0.1438E+02  0.1005E+03  0.1004E+03
      2.449  0.4703E+01  0.5886E+01  0.1015E+03  0.1014E+03
      2.543  0.2413E+01  0.2194E+01  0.1018E+03  0.1019E+03
      2.638  0.5673E+00  0.5371E+00  0.1020E+03  0.1020E+03
      2.733  0.0000E+00  0.0000E+00  0.1020E+03  0.1020E+03
      2.828  0.0000E+00  0.0000E+00  0.1020E+03  0.1020E+03
      2.922  0.0000E+00  0.0000E+00  0.1020E+03  0.1020E+03
      3.017  0.0000E+00  0.0000E+00  0.1020E+03  0.1020E+03
      3.112  0.0000E+00  0.0000E+00  0.1020E+03  0.1020E+03
      3.207  0.0000E+00  0.0000E+00  0.1020E+03  0.1020E+03
      3.302  0.0000E+00  0.0000E+00  0.1020E+03  0.1020E+03
      3.396  0.0000E+00  0.0000E+00  0.1020E+03  0.1020E+03
      3.491  0.0000E+00  0.0000E+00  0.1020E+03  0.1020E+03
      3.586  0.0000E+00  0.0000E+00  0.1020E+03  0.1020E+03
      3.681  0.0000E+00  0.0000E+00  0.1020E+03  0.1020E+03
      3.775  0.0000E+00  0.0000E+00  0.1020E+03  0.1020E+03
      3.870  0.0000E+00  0.0000E+00  0.1020E+03  0.1020E+03
      3.965  0.0000E+00  0.0000E+00  0.1020E+03  0.1020E+03
