       N       E                     dE             d eps       ncg     rms          rms(c)
DAV:   1     0.142041622912E+04    0.14204E+04   -0.44843E+04  6096   0.116E+03
DAV:   2     0.121401474857E+03   -0.12990E+04   -0.11478E+04  9192   0.188E+02
DAV:   3    -0.280140521114E+03   -0.40154E+03   -0.39735E+03  7110   0.114E+02
DAV:   4    -0.302471610009E+03   -0.22331E+02   -0.22198E+02  7212   0.372E+01
DAV:   5    -0.302934917679E+03   -0.46331E+00   -0.46208E+00  7410   0.531E+00    0.365E+01
DAV:   6    -0.208815796801E+03    0.94119E+02   -0.14526E+02  5772   0.266E+01    0.207E+01
DAV:   7    -0.232445562812E+03   -0.23630E+02   -0.20427E+01  6702   0.117E+01    0.132E+01
DAV:   8    -0.247260231212E+03   -0.14815E+02   -0.11409E+01  6204   0.786E+00    0.899E+00
DAV:   9    -0.257790547604E+03   -0.10530E+02   -0.26696E+00  5928   0.429E+00    0.745E+00
DAV:  10    -0.270199079115E+03   -0.12409E+02   -0.53479E+00  5562   0.518E+00    0.598E+00
DAV:  11    -0.280010651138E+03   -0.98116E+01   -0.47245E+00  5658   0.438E+00    0.490E+00
DAV:  12    -0.289214747369E+03   -0.92041E+01   -0.61043E+00  5646   0.437E+00    0.356E+00
DAV:  13    -0.292097072633E+03   -0.28823E+01   -0.15171E+00  5634   0.218E+00    0.309E+00
DAV:  14    -0.293364204282E+03   -0.12671E+01   -0.22311E-01  5580   0.121E+00    0.279E+00
DAV:  15    -0.293708596305E+03   -0.34439E+00   -0.19392E-01  5436   0.105E+00    0.234E+00
DAV:  16    -0.293088941049E+03    0.61966E+00   -0.40696E-02  5382   0.782E-01    0.200E+00
DAV:  17    -0.294205231144E+03   -0.11163E+01   -0.62464E-02  5664   0.118E+00    0.151E+00
DAV:  18    -0.295002597940E+03   -0.79737E+00   -0.20977E-01  5952   0.160E+00    0.906E-01
DAV:  19    -0.295218230393E+03   -0.21563E+00   -0.75188E-02  5664   0.135E+00    0.526E-01
DAV:  20    -0.295332443086E+03   -0.11421E+00   -0.34887E-02  5502   0.886E-01    0.249E-01
DAV:  21    -0.295400106769E+03   -0.67664E-01   -0.11214E-02  5682   0.480E-01    0.989E-02
DAV:  22    -0.295452439223E+03   -0.52332E-01   -0.19915E-03  5550   0.208E-01    0.556E-02
DAV:  23    -0.295469367235E+03   -0.16928E-01   -0.70624E-04  5448   0.119E-01    0.342E-02
DAV:  24    -0.295471417662E+03   -0.20504E-02   -0.42337E-04  5634   0.782E-02    0.212E-02
DAV:  25    -0.295478744303E+03   -0.73266E-02   -0.18544E-04  5412   0.583E-02    0.145E-02
DAV:  26    -0.295482675131E+03   -0.39308E-02   -0.10059E-04  5556   0.415E-02    0.953E-03
DAV:  27    -0.295484548112E+03   -0.18730E-02   -0.54253E-05  5640   0.236E-02    0.484E-03
DAV:  28    -0.295485397666E+03   -0.84955E-03   -0.90102E-06  5616   0.981E-03    0.287E-03
DAV:  29    -0.295485554791E+03   -0.15712E-03   -0.21672E-06  5376   0.598E-03    0.189E-03
DAV:  30    -0.295485863203E+03   -0.30841E-03   -0.25473E-06  4872   0.511E-03    0.100E-03
DAV:  31    -0.295485929015E+03   -0.65812E-04   -0.75345E-07  4902   0.322E-03    0.690E-04
DAV:  32    -0.295485967527E+03   -0.38511E-04   -0.17400E-07  4788   0.180E-03    0.432E-04
DAV:  33    -0.295485997802E+03   -0.30275E-04   -0.15404E-07  4914   0.134E-03    0.206E-04
DAV:  34    -0.295486004308E+03   -0.65057E-05   -0.29406E-08  4038   0.674E-04    0.141E-04
DAV:  35    -0.295486010806E+03   -0.64980E-05   -0.21946E-08  3984   0.338E-04    0.779E-05
DAV:  36    -0.295486013521E+03   -0.27152E-05   -0.83818E-09  3966   0.224E-04    0.514E-05
DAV:  37    -0.295486014675E+03   -0.11545E-05    0.48656E-10  3786   0.131E-04    0.353E-05
DAV:  38    -0.295486015845E+03   -0.11702E-05    0.24435E-09  3888   0.847E-05    0.219E-05
DAV:  39    -0.295486016222E+03   -0.37661E-06    0.39301E-09  3978   0.555E-05    0.158E-05
DAV:  40    -0.295486016657E+03   -0.43512E-06    0.34137E-09  3822   0.596E-05    0.843E-06
DAV:  41    -0.295486016780E+03   -0.12332E-06    0.40606E-09  3846   0.367E-05    0.551E-06
DAV:  42    -0.295486016855E+03   -0.74615E-07    0.42259E-09  4158   0.199E-05
   1 F= -.29814616E+03 E0= -.29814616E+03  d E =0.000000E+00  mag=    -0.0000
