 vasp.5.4.4.18Apr17-6-g9f103f2a35 (build Jan 12 2023 11:40:15) complex          
  
 executed on             LinuxIFC date 2024.01.13  00:35:03
 running on   48 total cores
 distrk:  each k-point on   48 cores,    1 groups
 distr:  one band on NCORES_PER_BAND=   8 cores,    6 groups


--------------------------------------------------------------------------------------------------------


 INCAR:
 POTCAR:    PAW_PBE C 08Apr2002                   
 POTCAR:    PAW_PBE C 08Apr2002                   
   SHA256 =  253f7b50bb8d59471dbedb8285d89021f4a42ed1a2c5d38a03a736e69125dd95 C/
   COPYR  = (c) Copyright 08Apr2002 Georg Kresse                                
   COPYR  = This file is part of the software VASP. Any use, copying, and all ot
   COPYR  = If you do not have a valid VASP license, you may not use, copy or di
   VRHFIN =C: s2p2                                                              
   LEXCH  = PE                                                                  
   EATOM  =   147.1560 eV,   10.8157 Ry                                         
                                                                                
   TITEL  = PAW_PBE C 08Apr2002                                                 
   LULTRA =        F    use ultrasoft PP ?                                      
   IUNSCR =        1    unscreen: 0-lin 1-nonlin 2-no                           
   RPACOR =    1.200    partial core radius                                     
   POMASS =   12.011; ZVAL   =    4.000    mass and valenz                      
   RCORE  =    1.500    outmost cutoff radius                                   
   RWIGS  =    1.630; RWIGS  =    0.863    wigner-seitz radius (au A)           
   ENMAX  =  400.000; ENMIN  =  300.000 eV                                      
   ICORE  =        2    local potential                                         
   LCOR   =        T    correct aug charges                                     
   LPAW   =        T    paw PP                                                  
   EAUG   =  644.873                                                            
   DEXC   =    0.000                                                            
   RMAX   =    1.529    core radius for proj-oper                               
   RAUG   =    1.300    factor for augmentation sphere                          
   RDEP   =    1.501    radius for radial grids                                 
   RDEPT  =    1.300    core radius for aug-charge                              
                                                                                
   Atomic configuration                                                         
    4 entries                                                                   
     n  l   j            E        occ.                                          
     1  0  0.50      -273.3789   2.0000                                         
     2  0  0.50       -13.7508   2.0000                                         
     2  1  0.50        -5.2854   2.0000                                         
     3  2  1.50        -5.4423   0.0000                                         
   Description                                                                  
     l       E           TYP  RCUT    TYP  RCUT                                 
     0    -13.7508458     23  1.200                                             
     0     -8.2022199     23  1.200                                             
     1     -5.2854383     23  1.500                                             
     1     34.0145650     23  1.500                                             
     2     -5.4423304      7  1.500                                             
  local pseudopotential read in
  partial core-charges read in
  partial kinetic energy density read in
  atomic valenz-charges read in
  non local Contribution for L=           0  read in
    real space projection operators read in
  non local Contribution for L=           0  read in
    real space projection operators read in
  non local Contribution for L=           1  read in
    real space projection operators read in
  non local Contribution for L=           1  read in
    real space projection operators read in
    PAW grid and wavefunctions read in
 
   number of l-projection  operators is LMAX  =           4
   number of lm-projection operators is LMMAX =           8
 

 ----------------------------------------------------------------------------- 
|                                                                             |
|  ADVICE TO THIS USER RUNNING 'VASP/VAMP'   (HEAR YOUR MASTER'S VOICE ...):  |
|                                                                             |
|      You have a (more or less) 'large supercell' and for larger cells       |
|      it might be more efficient to use real space projection opertators     |
|      So try LREAL= Auto  in the INCAR   file.                               |
|      Mind:          For very  accurate calculation you might also keep the  |
|      reciprocal projection scheme          (i.e. LREAL=.FALSE.)             |
|                                                                             |
 ----------------------------------------------------------------------------- 

  PAW_PBE C 08Apr2002                   :
 energy of atom  1       EATOM= -147.1560
 kinetic energy error for atom=    0.0012 (will be added to EATOM!!)
 
 
 POSCAR: POSCAR file written by OVITO Basic 3.7.8
  positions in direct lattice
  velocities in cartesian coordinates
 exchange correlation table for  LEXCH =        8
   RHO(1)=    0.500       N(1)  =     2000
   RHO(2)=  100.500       N(2)  =     4000
 


--------------------------------------------------------------------------------------------------------


 ion  position               nearest neighbor table
   1  1.000  1.000  0.468-  26 1.42   8 1.42   2 1.42
   2  0.083  0.083  0.468-   9 1.42   3 1.42   1 1.42
   3  1.000  0.250  0.468-  28 1.42   2 1.42   4 1.42
   4  0.083  0.333  0.468-  11 1.42   5 1.42   3 1.42
   5  1.000  0.500  0.468-  30 1.42   4 1.42   6 1.42
   6  0.083  0.583  0.468-  13 1.42   7 1.42   5 1.42
   7  1.000  0.750  0.468-  32 1.42   6 1.42   8 1.42
   8  0.083  0.833  0.468-  15 1.42   1 1.42   7 1.42
   9  0.250  1.000  0.468-   2 1.42  16 1.42  10 1.42
  10  0.333  0.083  0.468-  17 1.42  11 1.42   9 1.42
  11  0.250  0.250  0.468-   4 1.42  10 1.42  12 1.42
  12  0.333  0.333  0.468-  19 1.42  13 1.42  11 1.42
  13  0.250  0.500  0.468-   6 1.42  12 1.42  14 1.42
  14  0.333  0.583  0.468-  21 1.42  15 1.42  13 1.42
  15  0.250  0.750  0.468-   8 1.42  14 1.42  16 1.42
  16  0.333  0.833  0.468-  23 1.42   9 1.42  15 1.42
  17  0.500  1.000  0.468-  10 1.42  24 1.42  18 1.42
  18  0.583  0.083  0.468-  25 1.42  19 1.42  17 1.42
  19  0.500  0.250  0.468-  12 1.42  18 1.42  20 1.42
  20  0.583  0.333  0.468-  27 1.42  21 1.42  19 1.42
  21  0.500  0.500  0.468-  14 1.42  20 1.42  22 1.42
  22  0.583  0.583  0.468-  29 1.42  23 1.42  21 1.42
  23  0.500  0.750  0.468-  16 1.42  22 1.42  24 1.42
  24  0.583  0.833  0.468-  31 1.42  17 1.42  23 1.42
  25  0.750  1.000  0.468-  18 1.42  32 1.42  26 1.42
  26  0.833  0.083  0.468-   1 1.42  27 1.42  25 1.42
  27  0.750  0.250  0.468-  20 1.42  26 1.42  28 1.42
  28  0.833  0.333  0.468-   3 1.42  29 1.42  27 1.42
  29  0.750  0.500  0.468-  22 1.42  28 1.42  30 1.42
  30  0.833  0.583  0.468-   5 1.42  31 1.42  29 1.42
  31  0.750  0.750  0.468-  24 1.42  30 1.42  32 1.42
  32  0.833  0.833  0.468-   7 1.42  25 1.42  31 1.42
 

IMPORTANT INFORMATION: All symmetrisations will be switched off!
NOSYMM: (Re-)initialisation of all symmetry stuff for point group C_1.

 
 

Automatic generation of k-mesh.
 generate k-points for:    5    5    1
Space group operators:
 irot       det(A)        alpha          n_x          n_y          n_z        tau_x        tau_y        tau_z
    1     1.000000     0.000001     1.000000     0.000000     0.000000     0.000000     0.000000     0.000000
 
 Subroutine IBZKPT returns following result:
 ===========================================
 
 Found     13 irreducible k-points:
 
 Following reciprocal coordinates:
            Coordinates               Weight
  0.000000  0.000000  0.000000      1.000000
  0.200000 -0.000000  0.000000      2.000000
  0.400000 -0.000000  0.000000      2.000000
 -0.000000  0.200000  0.000000      2.000000
  0.200000  0.200000  0.000000      2.000000
  0.400000  0.200000  0.000000      2.000000
 -0.400000  0.200000  0.000000      2.000000
 -0.200000  0.200000  0.000000      2.000000
 -0.000000  0.400000  0.000000      2.000000
  0.200000  0.400000  0.000000      2.000000
  0.400000  0.400000  0.000000      2.000000
 -0.400000  0.400000  0.000000      2.000000
 -0.200000  0.400000  0.000000      2.000000
 
 Following cartesian coordinates:
            Coordinates               Weight
  0.000000  0.000000  0.000000      1.000000
  0.020290 -0.011724 -0.000000      2.000000
  0.040579 -0.023447 -0.000000      2.000000
  0.000012  0.023436 -0.000000      2.000000
  0.020302  0.011713 -0.000000      2.000000
  0.040591 -0.000011 -0.000000      2.000000
 -0.040568  0.046883  0.000000      2.000000
 -0.020278  0.035160 -0.000000      2.000000
  0.000024  0.046872 -0.000000      2.000000
  0.020313  0.035149 -0.000000      2.000000
  0.040603  0.023425 -0.000000      2.000000
 -0.040556  0.070320 -0.000000      2.000000
 -0.020266  0.058596 -0.000000      2.000000
 
 TETIRR: Found     72 inequivalent tetrahedra from      150


--------------------------------------------------------------------------------------------------------




 Dimension of arrays:
   k-points           NKPTS =     13   k-points in BZ     NKDIM =     13   number of bands    NBANDS=    102
   number of dos      NEDOS =    301   number of ions     NIONS =     32
   non local maximal  LDIM  =      4   non local SUM 2l+1 LMDIM =      8
   total plane-waves  NPLWV = ******
   max r-space proj   IRMAX =      1   max aug-charges    IRDMAX=  12618
   dimension x,y,z NGX =    96 NGY =   96 NGZ =  480
   dimension x,y,z NGXF=   192 NGYF=  192 NGZF=  960
   support grid    NGXF=   192 NGYF=  192 NGZF=  960
   ions per type =              32
   NGX,Y,Z   is equivalent  to a cutoff of  16.20, 16.20, 15.97 a.u.
   NGXF,Y,Z  is equivalent  to a cutoff of  32.39, 32.40, 31.93 a.u.

 SYSTEM =  unknown system                          
 POSCAR =  POSCAR file written by OVITO Basic 3.7.8

 Startparameter for this run:
   NWRITE =      2    write-flag & timer
   PREC   = accura    normal or accurate (medium, high low for compatibility)
   ISTART =      0    job   : 0-new  1-cont  2-samecut
   ICHARG =      2    charge: 1-file 2-atom 10-const
   ISPIN  =      2    spin polarized calculation?
   LNONCOLLINEAR =      F non collinear calculations
   LSORBIT =      F    spin-orbit coupling
   INIWAV =      1    electr: 0-lowe 1-rand  2-diag
   LASPH  =      F    aspherical Exc in radial PAW
   METAGGA=      F    non-selfconsistent MetaGGA calc.

 Electronic Relaxation 1
   ENCUT  =  850.0 eV  62.47 Ry    7.90 a.u.  23.43 23.42118.82*2*pi/ulx,y,z
   ENINI  =  850.0     initial cutoff
   ENAUG  =  644.9 eV  augmentation charge cutoff
   NELM   =    150;   NELMIN=  2; NELMDL= -5     # of ELM steps 
   EDIFF  = 0.1E-06   stopping-criterion for ELM
   LREAL  =      F    real-space projection
   NLSPLINE    = F    spline interpolate recip. space projectors
   LCOMPAT=      F    compatible to vasp.4.4
   GGA_COMPAT  = T    GGA compatible to vasp.4.4-vasp.4.6
   LMAXPAW     = -100 max onsite density
   LMAXMIX     =    2 max onsite mixed and CHGCAR
   VOSKOWN=      0    Vosko Wilk Nusair interpolation
   ROPT   =    0.00000
 Ionic relaxation
   EDIFFG = 0.1E-05   stopping-criterion for IOM
   NSW    =      1    number of steps for IOM
   NBLOCK =      1;   KBLOCK =      1    inner block; outer block 
   IBRION =     -1    ionic relax: 0-MD 1-quasi-New 2-CG
   NFREE  =      0    steps in history (QN), initial steepest desc. (CG)
   ISIF   =      2    stress and relaxation
   IWAVPR =     10    prediction:  0-non 1-charg 2-wave 3-comb
   ISYM   =      0    0-nonsym 1-usesym 2-fastsym
   LCORR  =      T    Harris-Foulkes like correction to forces

   POTIM  = 0.5000    time-step for ionic-motion
   TEIN   =    0.0    initial temperature
   TEBEG  =    0.0;   TEEND  =   0.0 temperature during run
   SMASS  =  -3.00    Nose mass-parameter (am)
   estimated Nose-frequenzy (Omega)   =  0.10E-29 period in steps =****** mass=  -0.222E-26a.u.
   SCALEE = 1.0000    scale energy and forces
   NPACO  =    256;   APACO  = 16.0  distance and # of slots for P.C.
   PSTRESS=    0.0 pullay stress

  Mass of Ions in am
   POMASS =  12.01
  Ionic Valenz
   ZVAL   =   4.00
  Atomic Wigner-Seitz radii
   RWIGS  =  -1.00
  virtual crystal weights 
   VCA    =   1.00
   NELECT =     128.0000    total number of electrons
   NUPDOWN=      -1.0000    fix difference up-down

 DOS related values:
   EMIN   =  10.00;   EMAX   =-10.00  energy-range for DOS
   EFERMI =   0.00
   ISMEAR =    -5;   SIGMA  =   0.02  broadening in eV -4-tet -1-fermi 0-gaus

 Electronic relaxation 2 (details)
   IALGO  =     38    algorithm
   LDIAG  =      T    sub-space diagonalisation (order eigenvalues)
   LSUBROT=      F    optimize rotation matrix (better conditioning)
   TURBO    =      0    0=normal 1=particle mesh
   IRESTART =      0    0=no restart 2=restart with 2 vectors
   NREBOOT  =      0    no. of reboots
   NMIN     =      0    reboot dimension
   EREF     =   0.00    reference energy to select bands
   IMIX   =      4    mixing-type and parameters
     AMIX     =   0.40;   BMIX     =  1.00
     AMIX_MAG =   1.60;   BMIX_MAG =  1.00
     AMIN     =   0.10
     WC   =   100.;   INIMIX=   1;  MIXPRE=   1;  MAXMIX= -45

 Intra band minimization:
   WEIMIN = 0.0000     energy-eigenvalue tresh-hold
   EBREAK =  0.25E-09  absolut break condition
   DEPER  =   0.30     relativ break condition  

   TIME   =   0.40     timestep for ELM

  volume/ion in A,a.u.               =     131.35       886.39
  Fermi-wavevector in a.u.,A,eV,Ry     =   0.511233  0.966091  3.556014  0.261360
  Thomas-Fermi vector in A             =   1.524627
 
 Write flags
   LWAVE        =      F    write WAVECAR
   LDOWNSAMPLE  =      F    k-point downsampling of WAVECAR
   LCHARG       =      F    write CHGCAR
   LVTOT        =      F    write LOCPOT, total local potential
   LVHAR        =      F    write LOCPOT, Hartree potential only
   LELF         =      F    write electronic localiz. function (ELF)
   LORBIT       =      0    0 simple, 1 ext, 2 COOP (PROOUT), +10 PAW based schemes


 Dipole corrections
   LMONO  =      F    monopole corrections only (constant potential shift)
   LDIPOL =      F    correct potential (dipole corrections)
   IDIPOL =      0    1-x, 2-y, 3-z, 4-all directions 
   EPSILON=  1.0000000 bulk dielectric constant

 Exchange correlation treatment:
   GGA     =    --    GGA type
   LEXCH   =     8    internal setting for exchange type
   VOSKOWN=      0    Vosko Wilk Nusair interpolation
   LHFCALC =     F    Hartree Fock is set to
   LHFONE  =     F    Hartree Fock one center treatment
   AEXX    =    0.0000 exact exchange contribution

 Linear response parameters
   LEPSILON=     F    determine dielectric tensor
   LRPA    =     F    only Hartree local field effects (RPA)
   LNABLA  =     F    use nabla operator in PAW spheres
   LVEL    =     F    velocity operator in full k-point grid
   LINTERFAST=   F  fast interpolation
   KINTER  =     0    interpolate to denser k-point grid
   CSHIFT  =0.1000    complex shift for real part using Kramers Kronig
   OMEGAMAX=  -1.0    maximum frequency
   DEG_THRESHOLD= 0.2000000E-02 threshold for treating states as degnerate
   RTIME   =   -0.100 relaxation time in fs
  (WPLASMAI=    0.000 imaginary part of plasma frequency in eV, 0.658/RTIME)
   DFIELD  = 0.0000000 0.0000000 0.0000000 field for delta impulse in time
 
 Orbital magnetization related:
   ORBITALMAG=     F  switch on orbital magnetization
   LCHIMAG   =     F  perturbation theory with respect to B field
   DQ        =  0.001000  dq finite difference perturbation B field
   LLRAUG    =     F  two centre corrections for induced B field



--------------------------------------------------------------------------------------------------------


 Static calculation
 charge density and potential will be updated during run
 spin polarized calculation
 Variant of blocked Davidson
 Davidson routine will perform the subspace rotation
 perform sub-space diagonalisation
    after iterative eigenvector-optimisation
 modified Broyden-mixing scheme, WC =      100.0
 initial mixing is a Kerker type mixing with AMIX =  0.4000 and BMIX =      1.0000
 Hartree-type preconditioning will be used
 using additional bands           38
 reciprocal scheme for non local part
 use partial core corrections
 calculate Harris-corrections to forces 
   (improved forces if not selfconsistent)
 use gradient corrections 
 use of overlap-Matrix (Vanderbilt PP)
 Fermi weights with tetrahedron method with Bloechl corrections


--------------------------------------------------------------------------------------------------------


  energy-cutoff  :      850.00
  volume of cell :     4203.17
      direct lattice vectors                 reciprocal lattice vectors
     9.854323835 -0.004993466  0.000000439     0.101448593 -0.058618088 -0.000000002
     4.929482092  8.531309007  0.000000519     0.000059379  0.117180997 -0.000000004
     0.000002224  0.000001756 49.981227789    -0.000000001 -0.000000001  0.020007512

  length of vectors
     9.854325101  9.853071961 49.981227789     0.117166110  0.117181012  0.020007512


 
 k-points in units of 2pi/SCALE and weight: read from INCAR                         
   0.00000000  0.00000000  0.00000000       0.040
   0.02028972 -0.01172362 -0.00000000       0.080
   0.04057944 -0.02344724 -0.00000000       0.080
   0.00001188  0.02343620 -0.00000000       0.080
   0.02030159  0.01171258 -0.00000000       0.080
   0.04059131 -0.00001104 -0.00000000       0.080
  -0.04056756  0.04688343  0.00000000       0.080
  -0.02027784  0.03515982 -0.00000000       0.080
   0.00002375  0.04687240 -0.00000000       0.080
   0.02031347  0.03514878 -0.00000000       0.080
   0.04060319  0.02342516 -0.00000000       0.080
  -0.04055569  0.07031963 -0.00000000       0.080
  -0.02026597  0.05859602 -0.00000000       0.080
 
 k-points in reciprocal lattice and weights: read from INCAR                         
   0.00000000  0.00000000  0.00000000       0.040
   0.20000000 -0.00000000  0.00000000       0.080
   0.40000000 -0.00000000  0.00000000       0.080
  -0.00000000  0.20000000  0.00000000       0.080
   0.20000000  0.20000000  0.00000000       0.080
   0.40000000  0.20000000  0.00000000       0.080
  -0.40000000  0.20000000  0.00000000       0.080
  -0.20000000  0.20000000  0.00000000       0.080
  -0.00000000  0.40000000  0.00000000       0.080
   0.20000000  0.40000000  0.00000000       0.080
   0.40000000  0.40000000  0.00000000       0.080
  -0.40000000  0.40000000  0.00000000       0.080
  -0.20000000  0.40000000  0.00000000       0.080
 
 position of ions in fractional coordinates (direct lattice) 
   0.99991137  0.99990152  0.46800000
   0.08330021  0.08322602  0.46800000
   0.99991137  0.24990152  0.46800000
   0.08330021  0.33322603  0.46800000
   0.99991137  0.49990152  0.46800000
   0.08330021  0.58322603  0.46800000
   0.99991137  0.74990152  0.46800000
   0.08330022  0.83322602  0.46800000
   0.24991137  0.99990152  0.46800000
   0.33330022  0.08322602  0.46800000
   0.24991137  0.24990152  0.46800000
   0.33330022  0.33322602  0.46800000
   0.24991137  0.49990152  0.46800000
   0.33330022  0.58322602  0.46800000
   0.24991137  0.74990152  0.46800000
   0.33330022  0.83322602  0.46800000
   0.49991138  0.99990152  0.46800000
   0.58330022  0.08322602  0.46800000
   0.49991138  0.24990152  0.46800000
   0.58330022  0.33322602  0.46800000
   0.49991137  0.49990152  0.46800000
   0.58330022  0.58322602  0.46800000
   0.49991137  0.74990152  0.46800000
   0.58330022  0.83322602  0.46800000
   0.74991137  0.99990152  0.46800000
   0.83330021  0.08322603  0.46800000
   0.74991137  0.24990152  0.46800000
   0.83330021  0.33322603  0.46800000
   0.74991137  0.49990152  0.46800000
   0.83330021  0.58322602  0.46800000
   0.74991137  0.74990152  0.46800000
   0.83330022  0.83322602  0.46800000
 
 position of ions in cartesian coordinates  (Angst):
  14.78244812  8.52547662 23.39121556
   1.23112951  0.70961178 23.39121469
  11.08533657  2.12699487 23.39121517
   2.46350004  2.84243906 23.39121481
  12.31770710  4.25982215 23.39121530
   3.69587058  4.97526631 23.39121495
  13.55007762  6.39264941 23.39121544
   4.92824111  7.10809355 23.39121508
   7.39170527  8.52922173 23.39121523
   3.69471050  0.70836342 23.39121480
   3.69459371  2.13073997 23.39121484
   4.92708103  2.84119068 23.39121492
   4.92696424  4.26356724 23.39121497
   6.15945155  4.97401794 23.39121505
   6.15933474  6.39639448 23.39121510
   7.39182205  7.10684516 23.39121518
   9.85528626  8.52797335 23.39121534
   6.15829147  0.70711507 23.39121491
   6.15817468  2.12949160 23.39121495
   7.39066199  2.83994232 23.39121503
   7.39054519  4.26231886 23.39121508
   8.62303249  4.97276956 23.39121516
   8.62291572  6.39514611 23.39121521
   9.85540301  7.10559680 23.39121529
  12.31886720  8.52672498 23.39121546
   8.62187241  0.70586670 23.39121501
   8.62175562  2.12824323 23.39121506
   9.85424292  2.83869395 23.39121514
   9.85412614  4.26107050 23.39121519
  11.08661344  4.97152120 23.39121527
  11.08649668  6.39389777 23.39121532
  12.31898398  7.10434845 23.39121541
 


--------------------------------------------------------------------------------------------------------


 k-point  1 :   0.0000 0.0000 0.0000  plane waves:  236587
 k-point  2 :   0.2000-0.0000 0.0000  plane waves:  236677
 k-point  3 :   0.4000-0.0000 0.0000  plane waves:  236430
 k-point  4 :  -0.0000 0.2000 0.0000  plane waves:  236673
 k-point  5 :   0.2000 0.2000 0.0000  plane waves:  236663
 k-point  6 :   0.4000 0.2000 0.0000  plane waves:  236474
 k-point  7 :  -0.4000 0.2000 0.0000  plane waves:  236430
 k-point  8 :  -0.2000 0.2000 0.0000  plane waves:  236474
 k-point  9 :  -0.0000 0.4000 0.0000  plane waves:  236426
 k-point 10 :   0.2000 0.4000 0.0000  plane waves:  236471
 k-point 11 :   0.4000 0.4000 0.0000  plane waves:  236416
 k-point 12 :  -0.4000 0.4000 0.0000  plane waves:  236433
 k-point 13 :  -0.2000 0.4000 0.0000  plane waves:  236429

 maximum and minimum number of plane-waves per node :     29630    29505

 maximum number of plane-waves:    236677
 maximum index in each direction: 
   IXMAX=   23   IYMAX=   23   IZMAX=  118
   IXMIN=  -23   IYMIN=  -23   IZMIN= -118


 parallel 3D FFT for wavefunctions:
    minimum data exchange during FFTs selected (reduces bandwidth)
 parallel 3D FFT for charge:
    minimum data exchange during FFTs selected (reduces bandwidth)


 total amount of memory used by VASP MPI-rank0   417715. kBytes
=======================================================================

   base      :      30000. kBytes
   nonl-proj :      39747. kBytes
   fftplans  :      41100. kBytes
   grid      :      97443. kBytes
   one-center:         24. kBytes
   wavefun   :     209401. kBytes
 
     INWAV:  cpu time    0.0000: real time    0.0000
 Broyden mixing: mesh for mixing (old mesh)
   NGX = 47   NGY = 47   NGZ =237
  (NGX  =192   NGY  =192   NGZ  =960)
  gives a total of 523533 points

 initial charge density was supplied:
 charge density of overlapping atoms calculated
 number of electron     128.0000000 magnetization      32.0000000
 keeping initial charge density in first step


--------------------------------------------------------------------------------------------------------


 Maximum index for augmentation-charges          576 (set IRDMAX)


--------------------------------------------------------------------------------------------------------


 First call to EWALD:  gamma=   0.110
 Maximum number of real-space cells 5x 5x 1
 Maximum number of reciprocal cells 2x 2x 7

    FEWALD:  cpu time    0.0016: real time    0.0018


--------------------------------------- Iteration      1(   1)  ---------------------------------------


    POTLOK:  cpu time    1.1824: real time    1.2626
    SETDIJ:  cpu time    0.0723: real time    0.0726
     EDDAV:  cpu time  108.5149: real time  108.8818
 BZINTS: Fermi energy:  5.045349;128.000000 electrons
         Band energy:-497.532000;  BLOECHL correction: -0.024167
       DOS:  cpu time    0.0161: real time    0.0161
    --------------------------------------------
      LOOP:  cpu time  109.7857: real time  110.2332

 eigenvalue-minimisations  :  6096
 total energy-change (2. order) : 0.1420416E+04  (-0.4484254E+04)
 number of electron     128.0000000 magnetization      32.0000000
 augmentation part      128.0000000 magnetization      32.0000000

 Free energy of the ion-electron system (eV)
  ---------------------------------------------------
  alpha Z        PSCENC =        20.01306473
  Ewald energy   TEWEN  =     64807.06088596
  -Hartree energ DENC   =    -68027.44030135
  -exchange      EXHF   =         0.00000000
  -V(xc)+E(xc)   XCENC  =       427.29893117
  PAW double counting   =      3468.60153240    -3486.53919659
  entropy T*S    EENTRO =         0.00000000
  eigenvalues    EBANDS =      -497.53199987
  atomic energy  EATOM  =      4708.95331268
  Solvation  Ediel_sol  =         0.00000000
  ---------------------------------------------------
  free energy    TOTEN  =      1420.41622912 eV

  energy without entropy =     1420.41622912  energy(sigma->0) =     1420.41622912


--------------------------------------------------------------------------------------------------------




--------------------------------------- Iteration      1(   2)  ---------------------------------------


     EDDAV:  cpu time  152.9195: real time  153.2958
 BZINTS: Fermi energy: -0.807603;128.000000 electrons
         Band energy:***********;  BLOECHL correction: -0.121705
       DOS:  cpu time    0.0154: real time    0.0155
    --------------------------------------------
      LOOP:  cpu time  152.9349: real time  153.3112

 eigenvalue-minimisations  :  9192
 total energy-change (2. order) :-0.1299015E+04  (-0.1147763E+04)
 number of electron     128.0000000 magnetization      32.0000000
 augmentation part      128.0000000 magnetization      32.0000000

 Free energy of the ion-electron system (eV)
  ---------------------------------------------------
  alpha Z        PSCENC =        20.01306473
  Ewald energy   TEWEN  =     64807.06088596
  -Hartree energ DENC   =    -68027.44030135
  -exchange      EXHF   =         0.00000000
  -V(xc)+E(xc)   XCENC  =       427.29893117
  PAW double counting   =      3468.60153240    -3486.53919659
  entropy T*S    EENTRO =         0.00000000
  eigenvalues    EBANDS =     -1796.54675413
  atomic energy  EATOM  =      4708.95331268
  Solvation  Ediel_sol  =         0.00000000
  ---------------------------------------------------
  free energy    TOTEN  =       121.40147486 eV

  energy without entropy =      121.40147486  energy(sigma->0) =      121.40147486


--------------------------------------------------------------------------------------------------------




--------------------------------------- Iteration      1(   3)  ---------------------------------------


     EDDAV:  cpu time  125.6087: real time  125.9192
 BZINTS: Fermi energy: -7.108681;128.000000 electrons
         Band energy:***********;  BLOECHL correction: -0.059588
       DOS:  cpu time    0.0148: real time    0.0148
    --------------------------------------------
      LOOP:  cpu time  125.6234: real time  125.9340

 eigenvalue-minimisations  :  7110
 total energy-change (2. order) :-0.4015420E+03  (-0.3973489E+03)
 number of electron     128.0000000 magnetization      32.0000000
 augmentation part      128.0000000 magnetization      32.0000000

 Free energy of the ion-electron system (eV)
  ---------------------------------------------------
  alpha Z        PSCENC =        20.01306473
  Ewald energy   TEWEN  =     64807.06088596
  -Hartree energ DENC   =    -68027.44030135
  -exchange      EXHF   =         0.00000000
  -V(xc)+E(xc)   XCENC  =       427.29893117
  PAW double counting   =      3468.60153240    -3486.53919659
  entropy T*S    EENTRO =         0.00000000
  eigenvalues    EBANDS =     -2198.08875011
  atomic energy  EATOM  =      4708.95331268
  Solvation  Ediel_sol  =         0.00000000
  ---------------------------------------------------
  free energy    TOTEN  =      -280.14052111 eV

  energy without entropy =     -280.14052111  energy(sigma->0) =     -280.14052111


--------------------------------------------------------------------------------------------------------




--------------------------------------- Iteration      1(   4)  ---------------------------------------


     EDDAV:  cpu time  126.6398: real time  126.9531
 BZINTS: Fermi energy: -7.472138;128.000000 electrons
         Band energy:***********;  BLOECHL correction: -0.054112
       DOS:  cpu time    0.0151: real time    0.0151
    --------------------------------------------
      LOOP:  cpu time  126.6548: real time  126.9682

 eigenvalue-minimisations  :  7212
 total energy-change (2. order) :-0.2233109E+02  (-0.2219772E+02)
 number of electron     128.0000000 magnetization      32.0000000
 augmentation part      128.0000000 magnetization      32.0000000

 Free energy of the ion-electron system (eV)
  ---------------------------------------------------
  alpha Z        PSCENC =        20.01306473
  Ewald energy   TEWEN  =     64807.06088596
  -Hartree energ DENC   =    -68027.44030135
  -exchange      EXHF   =         0.00000000
  -V(xc)+E(xc)   XCENC  =       427.29893117
  PAW double counting   =      3468.60153240    -3486.53919659
  entropy T*S    EENTRO =         0.00000000
  eigenvalues    EBANDS =     -2220.41983900
  atomic energy  EATOM  =      4708.95331268
  Solvation  Ediel_sol  =         0.00000000
  ---------------------------------------------------
  free energy    TOTEN  =      -302.47161001 eV

  energy without entropy =     -302.47161001  energy(sigma->0) =     -302.47161001


--------------------------------------------------------------------------------------------------------




--------------------------------------- Iteration      1(   5)  ---------------------------------------


     EDDAV:  cpu time  129.3265: real time  129.6403
 BZINTS: Fermi energy: -7.475851;128.000000 electrons
         Band energy:***********;  BLOECHL correction: -0.053926
       DOS:  cpu time    0.0147: real time    0.0148
    CHARGE:  cpu time    6.4384: real time    6.4536
    MIXING:  cpu time    0.0292: real time    0.0293
    --------------------------------------------
      LOOP:  cpu time  135.8088: real time  136.1380

 eigenvalue-minimisations  :  7410
 total energy-change (2. order) :-0.4633077E+00  (-0.4620833E+00)
 number of electron     127.9999991 magnetization      31.2165778
 augmentation part        3.4019379 magnetization      30.7329238

 Broyden mixing:
  rms(total) = 0.36472E+01    rms(broyden)= 0.36472E+01
  rms(prec ) = 0.36674E+01
  weight for this iteration     100.00

 Free energy of the ion-electron system (eV)
  ---------------------------------------------------
  alpha Z        PSCENC =        20.01306473
  Ewald energy   TEWEN  =     64807.06088596
  -Hartree energ DENC   =    -68027.44030135
  -exchange      EXHF   =         0.00000000
  -V(xc)+E(xc)   XCENC  =       427.29893117
  PAW double counting   =      3468.60153240    -3486.53919659
  entropy T*S    EENTRO =         0.00000000
  eigenvalues    EBANDS =     -2220.88314667
  atomic energy  EATOM  =      4708.95331268
  Solvation  Ediel_sol  =         0.00000000
  ---------------------------------------------------
  free energy    TOTEN  =      -302.93491768 eV

  energy without entropy =     -302.93491768  energy(sigma->0) =     -302.93491768


--------------------------------------------------------------------------------------------------------




--------------------------------------- Iteration      1(   6)  ---------------------------------------


    POTLOK:  cpu time    1.1767: real time    1.1986
    SETDIJ:  cpu time    0.0140: real time    0.0141
     EDDAV:  cpu time  106.9122: real time  107.1694
 BZINTS: Fermi energy: -5.877407;128.000000 electrons
         Band energy:***********;  BLOECHL correction: -0.055551
       DOS:  cpu time    0.0155: real time    0.0155
    CHARGE:  cpu time    6.4415: real time    6.4567
    MIXING:  cpu time    0.0301: real time    0.0303
    --------------------------------------------
      LOOP:  cpu time  114.5901: real time  114.8846

 eigenvalue-minimisations  :  5772
 total energy-change (2. order) : 0.9411912E+02  (-0.1452600E+02)
 number of electron     127.9999991 magnetization      30.2148655
 augmentation part        3.3613928 magnetization      29.4935280

 Broyden mixing:
  rms(total) = 0.20682E+01    rms(broyden)= 0.20682E+01
  rms(prec ) = 0.20841E+01
  weight for this iteration     100.00

 eigenvalues of (default mixing * dielectric matrix)
  average eigenvalue GAMMA=   1.0531
  1.0531

 Free energy of the ion-electron system (eV)
  ---------------------------------------------------
  alpha Z        PSCENC =        20.01306473
  Ewald energy   TEWEN  =     64807.06088596
  -Hartree energ DENC   =    -68212.40901346
  -exchange      EXHF   =         0.00000000
  -V(xc)+E(xc)   XCENC  =       495.23955947
  PAW double counting   =      6358.45446473    -6378.97895431
  entropy T*S    EENTRO =         0.00000000
  eigenvalues    EBANDS =     -2007.14911659
  atomic energy  EATOM  =      4708.95331268
  Solvation  Ediel_sol  =         0.00000000
  ---------------------------------------------------
  free energy    TOTEN  =      -208.81579680 eV

  energy without entropy =     -208.81579680  energy(sigma->0) =     -208.81579680


--------------------------------------------------------------------------------------------------------




--------------------------------------- Iteration      1(   7)  ---------------------------------------


    POTLOK:  cpu time    1.1697: real time    1.1788
    SETDIJ:  cpu time    0.0122: real time    0.0122
     EDDAV:  cpu time  117.8358: real time  118.1280
 BZINTS: Fermi energy: -4.753284;128.000000 electrons
         Band energy:***********;  BLOECHL correction: -0.038172
       DOS:  cpu time    0.0146: real time    0.0146
    CHARGE:  cpu time    6.4521: real time    6.4673
    MIXING:  cpu time    0.0261: real time    0.0261
    --------------------------------------------
      LOOP:  cpu time  125.5104: real time  125.8270

 eigenvalue-minimisations  :  6702
 total energy-change (2. order) :-0.2362977E+02  (-0.2042736E+01)
 number of electron     127.9999991 magnetization      28.8893547
 augmentation part        3.2497989 magnetization      28.4792883

 Broyden mixing:
  rms(total) = 0.13160E+01    rms(broyden)= 0.13160E+01
  rms(prec ) = 0.13210E+01
  weight for this iteration     100.00

 eigenvalues of (default mixing * dielectric matrix)
  average eigenvalue GAMMA=   1.3613
  0.8488  1.8737

 Free energy of the ion-electron system (eV)
  ---------------------------------------------------
  alpha Z        PSCENC =        20.01306473
  Ewald energy   TEWEN  =     64807.06088596
  -Hartree energ DENC   =    -68404.49331949
  -exchange      EXHF   =         0.00000000
  -V(xc)+E(xc)   XCENC  =       480.00764472
  PAW double counting   =      9606.78292522    -9628.87614028
  entropy T*S    EENTRO =         0.00000000
  eigenvalues    EBANDS =     -1821.89393635
  atomic energy  EATOM  =      4708.95331268
  Solvation  Ediel_sol  =         0.00000000
  ---------------------------------------------------
  free energy    TOTEN  =      -232.44556281 eV

  energy without entropy =     -232.44556281  energy(sigma->0) =     -232.44556281


--------------------------------------------------------------------------------------------------------




--------------------------------------- Iteration      1(   8)  ---------------------------------------


    POTLOK:  cpu time    1.1678: real time    1.1767
    SETDIJ:  cpu time    0.0116: real time    0.0116
     EDDAV:  cpu time  112.2181: real time  112.4909
 BZINTS: Fermi energy: -3.847585;128.000000 electrons
         Band energy:***********;  BLOECHL correction: -0.024147
       DOS:  cpu time    0.0155: real time    0.0155
    CHARGE:  cpu time    6.4345: real time    6.4497
    MIXING:  cpu time    0.0281: real time    0.0282
    --------------------------------------------
      LOOP:  cpu time  119.8756: real time  120.1725

 eigenvalue-minimisations  :  6204
 total energy-change (2. order) :-0.1481467E+02  (-0.1140892E+01)
 number of electron     127.9999991 magnetization      27.8218595
 augmentation part        3.1447044 magnetization      27.5721001

 Broyden mixing:
  rms(total) = 0.89926E+00    rms(broyden)= 0.89926E+00
  rms(prec ) = 0.90050E+00
  weight for this iteration     100.00

 eigenvalues of (default mixing * dielectric matrix)
  average eigenvalue GAMMA=   1.3324
  2.2393  1.0545  0.7034

 Free energy of the ion-electron system (eV)
  ---------------------------------------------------
  alpha Z        PSCENC =        20.01306473
  Ewald energy   TEWEN  =     64807.06088596
  -Hartree energ DENC   =    -68561.45210255
  -exchange      EXHF   =         0.00000000
  -V(xc)+E(xc)   XCENC  =       474.58331336
  PAW double counting   =     12906.32984250   -12929.04859471
  entropy T*S    EENTRO =         0.00000000
  eigenvalues    EBANDS =     -1673.69995318
  atomic energy  EATOM  =      4708.95331268
  Solvation  Ediel_sol  =         0.00000000
  ---------------------------------------------------
  free energy    TOTEN  =      -247.26023121 eV

  energy without entropy =     -247.26023121  energy(sigma->0) =     -247.26023121


--------------------------------------------------------------------------------------------------------




--------------------------------------- Iteration      1(   9)  ---------------------------------------


    POTLOK:  cpu time    1.1701: real time    1.1807
    SETDIJ:  cpu time    0.0122: real time    0.0122
     EDDAV:  cpu time  108.4737: real time  108.7349
 BZINTS: Fermi energy: -3.677277;128.000000 electrons
         Band energy:***********;  BLOECHL correction:  0.000000
       DOS:  cpu time    0.0030: real time    0.0030
    CHARGE:  cpu time    6.3213: real time    6.3362
    MIXING:  cpu time    0.0307: real time    0.0308
    --------------------------------------------
      LOOP:  cpu time  116.0110: real time  116.2978

 eigenvalue-minimisations  :  5928
 total energy-change (2. order) :-0.1053032E+02  (-0.2669619E+00)
 number of electron     127.9999991 magnetization      26.2808099
 augmentation part        3.1165327 magnetization      26.1498740

 Broyden mixing:
  rms(total) = 0.74462E+00    rms(broyden)= 0.74462E+00
  rms(prec ) = 0.74548E+00
  weight for this iteration     100.00

 eigenvalues of (default mixing * dielectric matrix)
  average eigenvalue GAMMA=   1.4024
  2.5321  1.5967  0.8571  0.6237

 Free energy of the ion-electron system (eV)
  ---------------------------------------------------
  alpha Z        PSCENC =        20.01306473
  Ewald energy   TEWEN  =     64807.06088596
  -Hartree energ DENC   =    -68600.05578691
  -exchange      EXHF   =         0.00000000
  -V(xc)+E(xc)   XCENC  =       468.10605777
  PAW double counting   =     13784.66800431   -13807.04266266
  entropy T*S    EENTRO =         0.00000000
  eigenvalues    EBANDS =     -1639.49342348
  atomic energy  EATOM  =      4708.95331268
  Solvation  Ediel_sol  =         0.00000000
  ---------------------------------------------------
  free energy    TOTEN  =      -257.79054760 eV

  energy without entropy =     -257.79054760  energy(sigma->0) =     -257.79054760


--------------------------------------------------------------------------------------------------------




--------------------------------------- Iteration      1(  10)  ---------------------------------------


    POTLOK:  cpu time    1.1667: real time    1.1761
    SETDIJ:  cpu time    0.0118: real time    0.0118
     EDDAV:  cpu time  103.2550: real time  103.5087
 BZINTS: Fermi energy: -3.614033;128.000000 electrons
         Band energy:***********;  BLOECHL correction:  0.000000
       DOS:  cpu time    0.0034: real time    0.0034
    CHARGE:  cpu time    6.3165: real time    6.3314
    MIXING:  cpu time    0.0297: real time    0.0298
    --------------------------------------------
      LOOP:  cpu time  110.7831: real time  111.0612

 eigenvalue-minimisations  :  5562
 total energy-change (2. order) :-0.1240853E+02  (-0.5347905E+00)
 number of electron     127.9999991 magnetization      24.4007091
 augmentation part        3.1028064 magnetization      24.3073399

 Broyden mixing:
  rms(total) = 0.59813E+00    rms(broyden)= 0.59813E+00
  rms(prec ) = 0.59855E+00
  weight for this iteration     100.00

 eigenvalues of (default mixing * dielectric matrix)
  average eigenvalue GAMMA=   1.5210
  2.9655  2.1958  1.0315  0.8109  0.6014

 Free energy of the ion-electron system (eV)
  ---------------------------------------------------
  alpha Z        PSCENC =        20.01306473
  Ewald energy   TEWEN  =     64807.06088596
  -Hartree energ DENC   =    -68630.71764683
  -exchange      EXHF   =         0.00000000
  -V(xc)+E(xc)   XCENC  =       460.27707496
  PAW double counting   =     14262.90377355   -14284.76022017
  entropy T*S    EENTRO =         0.00000000
  eigenvalues    EBANDS =     -1613.92932399
  atomic energy  EATOM  =      4708.95331268
  Solvation  Ediel_sol  =         0.00000000
  ---------------------------------------------------
  free energy    TOTEN  =      -270.19907912 eV

  energy without entropy =     -270.19907912  energy(sigma->0) =     -270.19907912


--------------------------------------------------------------------------------------------------------




--------------------------------------- Iteration      1(  11)  ---------------------------------------


    POTLOK:  cpu time    1.1722: real time    1.1822
    SETDIJ:  cpu time    0.0142: real time    0.0142
     EDDAV:  cpu time  104.9329: real time  105.1921
 BZINTS: Fermi energy: -3.578508;128.000000 electrons
         Band energy:***********;  BLOECHL correction:  0.000000
       DOS:  cpu time    0.0034: real time    0.0034
    CHARGE:  cpu time    6.1924: real time    6.2070
    MIXING:  cpu time    0.0333: real time    0.0334
    --------------------------------------------
      LOOP:  cpu time  112.3484: real time  112.6323

 eigenvalue-minimisations  :  5658
 total energy-change (2. order) :-0.9811572E+01  (-0.4724546E+00)
 number of electron     127.9999991 magnetization      21.2648724
 augmentation part        3.0904158 magnetization      21.2022429

 Broyden mixing:
  rms(total) = 0.48961E+00    rms(broyden)= 0.48961E+00
  rms(prec ) = 0.48987E+00
  weight for this iteration     100.00

 eigenvalues of (default mixing * dielectric matrix)
  average eigenvalue GAMMA=   1.7393
  4.0546  2.4920  1.5469  0.9861  0.7523  0.6037

 Free energy of the ion-electron system (eV)
  ---------------------------------------------------
  alpha Z        PSCENC =        20.01306473
  Ewald energy   TEWEN  =     64807.06088596
  -Hartree energ DENC   =    -68652.00816035
  -exchange      EXHF   =         0.00000000
  -V(xc)+E(xc)   XCENC  =       453.68290650
  PAW double counting   =     14174.97736496   -14196.55717151
  entropy T*S    EENTRO =         0.00000000
  eigenvalues    EBANDS =     -1596.13285410
  atomic energy  EATOM  =      4708.95331268
  Solvation  Ediel_sol  =         0.00000000
  ---------------------------------------------------
  free energy    TOTEN  =      -280.01065114 eV

  energy without entropy =     -280.01065114  energy(sigma->0) =     -280.01065114


--------------------------------------------------------------------------------------------------------




--------------------------------------- Iteration      1(  12)  ---------------------------------------


    POTLOK:  cpu time    1.1650: real time    1.1737
    SETDIJ:  cpu time    0.0149: real time    0.0150
     EDDAV:  cpu time  105.0976: real time  105.3525
 BZINTS: Fermi energy: -3.581498;128.000000 electrons
         Band energy:***********;  BLOECHL correction:  0.000000
       DOS:  cpu time    0.0033: real time    0.0033
    CHARGE:  cpu time    6.2189: real time    6.2336
    MIXING:  cpu time    0.0301: real time    0.0301
    --------------------------------------------
      LOOP:  cpu time  112.5298: real time  112.8082

 eigenvalue-minimisations  :  5646
 total energy-change (2. order) :-0.9204096E+01  (-0.6104313E+00)
 number of electron     127.9999991 magnetization      19.0957626
 augmentation part        3.0769342 magnetization      19.0638174

 Broyden mixing:
  rms(total) = 0.35639E+00    rms(broyden)= 0.35639E+00
  rms(prec ) = 0.35672E+00
  weight for this iteration     100.00

 eigenvalues of (default mixing * dielectric matrix)
  average eigenvalue GAMMA=   2.1526
  7.2095  2.4839  2.0762  1.0954  0.8772  0.7218  0.6039

 Free energy of the ion-electron system (eV)
  ---------------------------------------------------
  alpha Z        PSCENC =        20.01306473
  Ewald energy   TEWEN  =     64807.06088596
  -Hartree energ DENC   =    -68669.32595171
  -exchange      EXHF   =         0.00000000
  -V(xc)+E(xc)   XCENC  =       447.02340672
  PAW double counting   =     13529.33897351   -13550.95781788
  entropy T*S    EENTRO =         0.00000000
  eigenvalues    EBANDS =     -1581.32062137
  atomic energy  EATOM  =      4708.95331268
  Solvation  Ediel_sol  =         0.00000000
  ---------------------------------------------------
  free energy    TOTEN  =      -289.21474737 eV

  energy without entropy =     -289.21474737  energy(sigma->0) =     -289.21474737


--------------------------------------------------------------------------------------------------------




--------------------------------------- Iteration      1(  13)  ---------------------------------------


    POTLOK:  cpu time    1.1750: real time    1.1870
    SETDIJ:  cpu time    0.0124: real time    0.0124
     EDDAV:  cpu time  104.3155: real time  104.5672
 BZINTS: Fermi energy: -3.595820;128.000000 electrons
         Band energy:***********;  BLOECHL correction:  0.000000
       DOS:  cpu time    0.0030: real time    0.0030
    CHARGE:  cpu time    6.2119: real time    6.2267
    MIXING:  cpu time    0.0345: real time    0.0346
    --------------------------------------------
      LOOP:  cpu time  111.7523: real time  112.0310

 eigenvalue-minimisations  :  5634
 total energy-change (2. order) :-0.2882325E+01  (-0.1517070E+00)
 number of electron     127.9999991 magnetization      17.4473412
 augmentation part        3.0675677 magnetization      17.4357039

 Broyden mixing:
  rms(total) = 0.30891E+00    rms(broyden)= 0.30891E+00
  rms(prec ) = 0.30931E+00
  weight for this iteration     100.00

 eigenvalues of (default mixing * dielectric matrix)
  average eigenvalue GAMMA=   2.2201
  8.5667  2.3861  2.3861  1.2987  1.0096  0.6069  0.8077  0.6988

 Free energy of the ion-electron system (eV)
  ---------------------------------------------------
  alpha Z        PSCENC =        20.01306473
  Ewald energy   TEWEN  =     64807.06088596
  -Hartree energ DENC   =    -68674.32147963
  -exchange      EXHF   =         0.00000000
  -V(xc)+E(xc)   XCENC  =       444.78705128
  PAW double counting   =     13340.29038673   -13362.02141107
  entropy T*S    EENTRO =         0.00000000
  eigenvalues    EBANDS =     -1576.85888331
  atomic energy  EATOM  =      4708.95331268
  Solvation  Ediel_sol  =         0.00000000
  ---------------------------------------------------
  free energy    TOTEN  =      -292.09707263 eV

  energy without entropy =     -292.09707263  energy(sigma->0) =     -292.09707263


--------------------------------------------------------------------------------------------------------




--------------------------------------- Iteration      1(  14)  ---------------------------------------


    POTLOK:  cpu time    1.1678: real time    1.1776
    SETDIJ:  cpu time    0.0142: real time    0.0142
     EDDAV:  cpu time  103.2085: real time  103.4590
 BZINTS: Fermi energy: -3.678588;128.000000 electrons
         Band energy:***********;  BLOECHL correction:  0.000000
       DOS:  cpu time    0.0030: real time    0.0030
    CHARGE:  cpu time    6.2113: real time    6.2260
    MIXING:  cpu time    0.0361: real time    0.0362
    --------------------------------------------
      LOOP:  cpu time  110.6408: real time  110.9159

 eigenvalue-minimisations  :  5580
 total energy-change (2. order) :-0.1267132E+01  (-0.2231120E-01)
 number of electron     127.9999991 magnetization      14.3954646
 augmentation part        3.0637080 magnetization      14.3854492

 Broyden mixing:
  rms(total) = 0.27874E+00    rms(broyden)= 0.27874E+00
  rms(prec ) = 0.27897E+00
  weight for this iteration     100.00

 eigenvalues of (default mixing * dielectric matrix)
  average eigenvalue GAMMA=   2.3165
  9.4701  2.6815  2.6815  1.8856  1.1034  0.9638  0.7750  0.6111  0.6763

 Free energy of the ion-electron system (eV)
  ---------------------------------------------------
  alpha Z        PSCENC =        20.01306473
  Ewald energy   TEWEN  =     64807.06088596
  -Hartree energ DENC   =    -68664.34337169
  -exchange      EXHF   =         0.00000000
  -V(xc)+E(xc)   XCENC  =       443.51512127
  PAW double counting   =     13410.68344444   -13432.47280435
  entropy T*S    EENTRO =         0.00000000
  eigenvalues    EBANDS =     -1586.77385731
  atomic energy  EATOM  =      4708.95331268
  Solvation  Ediel_sol  =         0.00000000
  ---------------------------------------------------
  free energy    TOTEN  =      -293.36420428 eV

  energy without entropy =     -293.36420428  energy(sigma->0) =     -293.36420428


--------------------------------------------------------------------------------------------------------




--------------------------------------- Iteration      1(  15)  ---------------------------------------


    POTLOK:  cpu time    1.1692: real time    1.1787
    SETDIJ:  cpu time    0.0133: real time    0.0134
     EDDAV:  cpu time  101.8451: real time  102.0963
 BZINTS: Fermi energy: -3.897438;128.000000 electrons
         Band energy:***********;  BLOECHL correction:  0.000000
       DOS:  cpu time    0.0030: real time    0.0030
    CHARGE:  cpu time    6.2093: real time    6.2240
    MIXING:  cpu time    0.0381: real time    0.0382
    --------------------------------------------
      LOOP:  cpu time  109.2780: real time  109.5536

 eigenvalue-minimisations  :  5436
 total energy-change (2. order) :-0.3443920E+00  (-0.1939155E-01)
 number of electron     127.9999991 magnetization      11.5699652
 augmentation part        3.0659483 magnetization      11.5651181

 Broyden mixing:
  rms(total) = 0.23422E+00    rms(broyden)= 0.23422E+00
  rms(prec ) = 0.23436E+00
  weight for this iteration     100.00

 eigenvalues of (default mixing * dielectric matrix)
  average eigenvalue GAMMA=   2.4787
 10.6533  4.2934  2.3228  2.3228  1.2749  1.0273  0.8631  0.7531  0.6149  0.6614

 Free energy of the ion-electron system (eV)
  ---------------------------------------------------
  alpha Z        PSCENC =        20.01306473
  Ewald energy   TEWEN  =     64807.06088596
  -Hartree energ DENC   =    -68634.31935321
  -exchange      EXHF   =         0.00000000
  -V(xc)+E(xc)   XCENC  =       442.65982509
  PAW double counting   =     13469.49097975   -13491.25090796
  entropy T*S    EENTRO =         0.00000000
  eigenvalues    EBANDS =     -1616.31640334
  atomic energy  EATOM  =      4708.95331268
  Solvation  Ediel_sol  =         0.00000000
  ---------------------------------------------------
  free energy    TOTEN  =      -293.70859631 eV

  energy without entropy =     -293.70859631  energy(sigma->0) =     -293.70859631


--------------------------------------------------------------------------------------------------------




--------------------------------------- Iteration      1(  16)  ---------------------------------------


    POTLOK:  cpu time    1.1672: real time    1.1768
    SETDIJ:  cpu time    0.0156: real time    0.0156
     EDDAV:  cpu time  101.7749: real time  102.0203
 BZINTS: Fermi energy: -4.041013;128.000000 electrons
         Band energy:***********;  BLOECHL correction:  0.000000
       DOS:  cpu time    0.0042: real time    0.0042
    CHARGE:  cpu time    6.2324: real time    6.2471
    MIXING:  cpu time    0.0373: real time    0.0374
    --------------------------------------------
      LOOP:  cpu time  109.2317: real time  109.5015

 eigenvalue-minimisations  :  5382
 total energy-change (2. order) : 0.6196553E+00  (-0.4069635E-02)
 number of electron     127.9999991 magnetization       7.9171302
 augmentation part        3.0691285 magnetization       7.9113382

 Broyden mixing:
  rms(total) = 0.20012E+00    rms(broyden)= 0.20012E+00
  rms(prec ) = 0.20044E+00
  weight for this iteration     100.00

 eigenvalues of (default mixing * dielectric matrix)
  average eigenvalue GAMMA=   2.5685
 11.6947  5.3175  2.3766  2.3766  1.5746  1.0991  1.0087  0.8080  0.7308  0.6166
  0.6504

 Free energy of the ion-electron system (eV)
  ---------------------------------------------------
  alpha Z        PSCENC =        20.01306473
  Ewald energy   TEWEN  =     64807.06088596
  -Hartree energ DENC   =    -68612.42095538
  -exchange      EXHF   =         0.00000000
  -V(xc)+E(xc)   XCENC  =       442.96081807
  PAW double counting   =     13516.08760616   -13537.80332876
  entropy T*S    EENTRO =         0.00000000
  eigenvalues    EBANDS =     -1637.94034451
  atomic energy  EATOM  =      4708.95331268
  Solvation  Ediel_sol  =         0.00000000
  ---------------------------------------------------
  free energy    TOTEN  =      -293.08894105 eV

  energy without entropy =     -293.08894105  energy(sigma->0) =     -293.08894105


--------------------------------------------------------------------------------------------------------




--------------------------------------- Iteration      1(  17)  ---------------------------------------


    POTLOK:  cpu time    1.1680: real time    1.1797
    SETDIJ:  cpu time    0.0137: real time    0.0137
     EDDAV:  cpu time  105.4361: real time  105.6895
 BZINTS: Fermi energy: -4.173532;128.000000 electrons
         Band energy:***********;  BLOECHL correction:  0.000000
       DOS:  cpu time    0.0040: real time    0.0040
    CHARGE:  cpu time    6.2320: real time    6.2467
    MIXING:  cpu time    0.0406: real time    0.0407
    --------------------------------------------
      LOOP:  cpu time  112.8944: real time  113.1743

 eigenvalue-minimisations  :  5664
 total energy-change (2. order) :-0.1116290E+01  (-0.6246383E-02)
 number of electron     127.9999991 magnetization       3.7558800
 augmentation part        3.0690019 magnetization       3.7533112

 Broyden mixing:
  rms(total) = 0.15114E+00    rms(broyden)= 0.15114E+00
  rms(prec ) = 0.15149E+00
  weight for this iteration     100.00

 eigenvalues of (default mixing * dielectric matrix)
  average eigenvalue GAMMA=   2.8281
 13.7410  6.7932  2.6618  2.6618  2.1147  1.2794  1.0087  0.9379  0.7767  0.7083
  0.6187  0.6346

 Free energy of the ion-electron system (eV)
  ---------------------------------------------------
  alpha Z        PSCENC =        20.01306473
  Ewald energy   TEWEN  =     64807.06088596
  -Hartree energ DENC   =    -68599.51756227
  -exchange      EXHF   =         0.00000000
  -V(xc)+E(xc)   XCENC  =       442.00684560
  PAW double counting   =     13563.09912117   -13584.83072585
  entropy T*S    EENTRO =         0.00000000
  eigenvalues    EBANDS =     -1650.99017317
  atomic energy  EATOM  =      4708.95331268
  Solvation  Ediel_sol  =         0.00000000
  ---------------------------------------------------
  free energy    TOTEN  =      -294.20523114 eV

  energy without entropy =     -294.20523114  energy(sigma->0) =     -294.20523114


--------------------------------------------------------------------------------------------------------




--------------------------------------- Iteration      1(  18)  ---------------------------------------


    POTLOK:  cpu time    1.1685: real time    1.1842
    SETDIJ:  cpu time    0.0153: real time    0.0153
     EDDAV:  cpu time  108.1765: real time  108.4362
 BZINTS: Fermi energy: -4.195357;128.000000 electrons
         Band energy:***********;  BLOECHL correction:  0.000000
       DOS:  cpu time    0.0050: real time    0.0050
    CHARGE:  cpu time    6.2330: real time    6.2482
    MIXING:  cpu time    0.0400: real time    0.0401
    --------------------------------------------
      LOOP:  cpu time  115.6383: real time  115.9291

 eigenvalue-minimisations  :  5952
 total energy-change (2. order) :-0.7973668E+00  (-0.2097730E-01)
 number of electron     127.9999991 magnetization       1.5160738
 augmentation part        3.0671755 magnetization       1.5142201

 Broyden mixing:
  rms(total) = 0.90585E-01    rms(broyden)= 0.90585E-01
  rms(prec ) = 0.91112E-01
  weight for this iteration     100.00

 eigenvalues of (default mixing * dielectric matrix)
  average eigenvalue GAMMA=   3.3366
 19.4130  8.4560  3.7327  2.3396  2.3396  1.4551  1.0869  1.0100  0.8463  0.7598
  0.6951  0.6210  0.6210

 Free energy of the ion-electron system (eV)
  ---------------------------------------------------
  alpha Z        PSCENC =        20.01306473
  Ewald energy   TEWEN  =     64807.06088596
  -Hartree energ DENC   =    -68592.82920289
  -exchange      EXHF   =         0.00000000
  -V(xc)+E(xc)   XCENC  =       441.46077621
  PAW double counting   =     13497.68202060   -13519.44692862
  entropy T*S    EENTRO =         0.00000000
  eigenvalues    EBANDS =     -1657.89652660
  atomic energy  EATOM  =      4708.95331268
  Solvation  Ediel_sol  =         0.00000000
  ---------------------------------------------------
  free energy    TOTEN  =      -295.00259794 eV

  energy without entropy =     -295.00259794  energy(sigma->0) =     -295.00259794


--------------------------------------------------------------------------------------------------------




--------------------------------------- Iteration      1(  19)  ---------------------------------------


    POTLOK:  cpu time    1.1642: real time    1.1758
    SETDIJ:  cpu time    0.0155: real time    0.0156
     EDDAV:  cpu time  104.8163: real time  105.0703
 BZINTS: Fermi energy: -4.206582;128.000000 electrons
         Band energy:***********;  BLOECHL correction:  0.000000
       DOS:  cpu time    0.0043: real time    0.0043
    CHARGE:  cpu time    6.2565: real time    6.2714
    MIXING:  cpu time    0.0408: real time    0.0409
    --------------------------------------------
      LOOP:  cpu time  112.2977: real time  112.5783

 eigenvalue-minimisations  :  5664
 total energy-change (2. order) :-0.2156325E+00  (-0.7518830E-02)
 number of electron     127.9999991 magnetization       0.4610663
 augmentation part        3.0658819 magnetization       0.4603464

 Broyden mixing:
  rms(total) = 0.52565E-01    rms(broyden)= 0.52565E-01
  rms(prec ) = 0.53338E-01
  weight for this iteration     100.00

 eigenvalues of (default mixing * dielectric matrix)
  average eigenvalue GAMMA=   3.8805
 27.6278  9.2621  4.2360  2.3671  2.3671  1.7798  1.2622  0.9874  0.9874  0.7959
  0.7378  0.6810  0.6156  0.6195

 Free energy of the ion-electron system (eV)
  ---------------------------------------------------
  alpha Z        PSCENC =        20.01306473
  Ewald energy   TEWEN  =     64807.06088596
  -Hartree energ DENC   =    -68593.47754415
  -exchange      EXHF   =         0.00000000
  -V(xc)+E(xc)   XCENC  =       441.33329835
  PAW double counting   =     13463.31777343   -13485.08133835
  entropy T*S    EENTRO =         0.00000000
  eigenvalues    EBANDS =     -1657.33768303
  atomic energy  EATOM  =      4708.95331268
  Solvation  Ediel_sol  =         0.00000000
  ---------------------------------------------------
  free energy    TOTEN  =      -295.21823039 eV

  energy without entropy =     -295.21823039  energy(sigma->0) =     -295.21823039


--------------------------------------------------------------------------------------------------------




--------------------------------------- Iteration      1(  20)  ---------------------------------------


    POTLOK:  cpu time    1.1702: real time    1.1833
    SETDIJ:  cpu time    0.0136: real time    0.0137
     EDDAV:  cpu time  103.2351: real time  103.4869
 BZINTS: Fermi energy: -4.212997;128.000000 electrons
         Band energy:***********;  BLOECHL correction:  0.000000
       DOS:  cpu time    0.0042: real time    0.0042
    CHARGE:  cpu time    6.2476: real time    6.2624
    MIXING:  cpu time    0.0437: real time    0.0438
    --------------------------------------------
      LOOP:  cpu time  110.7145: real time  110.9943

 eigenvalue-minimisations  :  5502
 total energy-change (2. order) :-0.1142127E+00  (-0.3488670E-02)
 number of electron     127.9999991 magnetization       0.0931931
 augmentation part        3.0654576 magnetization       0.0932966

 Broyden mixing:
  rms(total) = 0.24853E-01    rms(broyden)= 0.24853E-01
  rms(prec ) = 0.25681E-01
  weight for this iteration     100.00

 eigenvalues of (default mixing * dielectric matrix)
  average eigenvalue GAMMA=   4.3730
 36.1758  9.7839  4.6298  2.5552  2.5552  2.0928  1.4196  1.0988  1.0187  0.8828
  0.7730  0.7172  0.6608  0.6080  0.6240

 Free energy of the ion-electron system (eV)
  ---------------------------------------------------
  alpha Z        PSCENC =        20.01306473
  Ewald energy   TEWEN  =     64807.06088596
  -Hartree energ DENC   =    -68596.59867665
  -exchange      EXHF   =         0.00000000
  -V(xc)+E(xc)   XCENC  =       441.19031046
  PAW double counting   =     13471.86735418   -13493.61626727
  entropy T*S    EENTRO =         0.00000000
  eigenvalues    EBANDS =     -1654.20242717
  atomic energy  EATOM  =      4708.95331268
  Solvation  Ediel_sol  =         0.00000000
  ---------------------------------------------------
  free energy    TOTEN  =      -295.33244309 eV

  energy without entropy =     -295.33244309  energy(sigma->0) =     -295.33244309


--------------------------------------------------------------------------------------------------------




--------------------------------------- Iteration      1(  21)  ---------------------------------------


    POTLOK:  cpu time    1.1719: real time    1.1827
    SETDIJ:  cpu time    0.0129: real time    0.0129
     EDDAV:  cpu time  105.9627: real time  106.2196
 BZINTS: Fermi energy: -4.173726;128.000000 electrons
         Band energy:***********;  BLOECHL correction:  0.000000
       DOS:  cpu time    0.0037: real time    0.0037
    CHARGE:  cpu time    6.3366: real time    6.3516
    MIXING:  cpu time    0.0436: real time    0.0437
    --------------------------------------------
      LOOP:  cpu time  113.5313: real time  113.8142

 eigenvalue-minimisations  :  5682
 total energy-change (2. order) :-0.6766368E-01  (-0.1121360E-02)
 number of electron     127.9999991 magnetization       0.0272953
 augmentation part        3.0655876 magnetization       0.0271894

 Broyden mixing:
  rms(total) = 0.98942E-02    rms(broyden)= 0.98941E-02
  rms(prec ) = 0.10826E-01
  weight for this iteration     100.00

 eigenvalues of (default mixing * dielectric matrix)
  average eigenvalue GAMMA=   4.4098
 39.2730  9.9459  4.8462  2.8316  2.4614  2.2440  1.5249  1.2420  1.0103  1.0103
  0.8241  0.7632  0.7033  0.6456  0.6259  0.6056

 Free energy of the ion-electron system (eV)
  ---------------------------------------------------
  alpha Z        PSCENC =        20.01306473
  Ewald energy   TEWEN  =     64807.06088596
  -Hartree energ DENC   =    -68599.39760621
  -exchange      EXHF   =         0.00000000
  -V(xc)+E(xc)   XCENC  =       441.06038987
  PAW double counting   =     13477.20091144   -13498.94223509
  entropy T*S    EENTRO =         0.00000000
  eigenvalues    EBANDS =     -1651.34883014
  atomic energy  EATOM  =      4708.95331268
  Solvation  Ediel_sol  =         0.00000000
  ---------------------------------------------------
  free energy    TOTEN  =      -295.40010677 eV

  energy without entropy =     -295.40010677  energy(sigma->0) =     -295.40010677


--------------------------------------------------------------------------------------------------------




--------------------------------------- Iteration      1(  22)  ---------------------------------------


    POTLOK:  cpu time    1.1741: real time    1.1899
    SETDIJ:  cpu time    0.0125: real time    0.0125
     EDDAV:  cpu time  103.2435: real time  103.4919
 BZINTS: Fermi energy: -4.165615;128.000000 electrons
         Band energy:***********;  BLOECHL correction:  0.000000
       DOS:  cpu time    0.0047: real time    0.0047
    CHARGE:  cpu time    6.3068: real time    6.3216
    MIXING:  cpu time    0.0461: real time    0.0462
    --------------------------------------------
      LOOP:  cpu time  110.7876: real time  111.0668

 eigenvalue-minimisations  :  5550
 total energy-change (2. order) :-0.5233245E-01  (-0.1991505E-03)
 number of electron     127.9999991 magnetization       0.0116841
 augmentation part        3.0658502 magnetization       0.0116537

 Broyden mixing:
  rms(total) = 0.55637E-02    rms(broyden)= 0.55636E-02
  rms(prec ) = 0.64550E-02
  weight for this iteration     100.00

 eigenvalues of (default mixing * dielectric matrix)
  average eigenvalue GAMMA=   4.2768
 39.9103  9.9763  4.9323  3.0242  2.3473  2.3473  1.6967  1.3615  1.0959  1.0121
  0.9182  0.7800  0.7521  0.6872  0.6351  0.6238  0.6056

 Free energy of the ion-electron system (eV)
  ---------------------------------------------------
  alpha Z        PSCENC =        20.01306473
  Ewald energy   TEWEN  =     64807.06088596
  -Hartree energ DENC   =    -68601.59248625
  -exchange      EXHF   =         0.00000000
  -V(xc)+E(xc)   XCENC  =       440.98626168
  PAW double counting   =     13471.00316914   -13492.74205357
  entropy T*S    EENTRO =         0.00000000
  eigenvalues    EBANDS =     -1649.13459359
  atomic energy  EATOM  =      4708.95331268
  Solvation  Ediel_sol  =         0.00000000
  ---------------------------------------------------
  free energy    TOTEN  =      -295.45243922 eV

  energy without entropy =     -295.45243922  energy(sigma->0) =     -295.45243922


--------------------------------------------------------------------------------------------------------




--------------------------------------- Iteration      1(  23)  ---------------------------------------


    POTLOK:  cpu time    1.1668: real time    1.1774
    SETDIJ:  cpu time    0.0124: real time    0.0124
     EDDAV:  cpu time  102.0702: real time  102.3231
 BZINTS: Fermi energy: -4.147110;128.000000 electrons
         Band energy:***********;  BLOECHL correction:  0.000000
       DOS:  cpu time    0.0038: real time    0.0038
    CHARGE:  cpu time    6.3184: real time    6.3334
    MIXING:  cpu time    0.0482: real time    0.0483
    --------------------------------------------
      LOOP:  cpu time  109.6198: real time  109.8983

 eigenvalue-minimisations  :  5448
 total energy-change (2. order) :-0.1692801E-01  (-0.7062370E-04)
 number of electron     127.9999991 magnetization       0.0038241
 augmentation part        3.0658594 magnetization       0.0038440

 Broyden mixing:
  rms(total) = 0.34231E-02    rms(broyden)= 0.34230E-02
  rms(prec ) = 0.42230E-02
  weight for this iteration     100.00

 eigenvalues of (default mixing * dielectric matrix)
  average eigenvalue GAMMA=   4.1496
 40.0850  9.9809  4.9879  3.1788  2.4032  2.4032  2.0365  1.4696  1.2374  1.0166
  1.0166  0.8466  0.7692  0.7297  0.6732  0.6343  0.6091  0.6155

 Free energy of the ion-electron system (eV)
  ---------------------------------------------------
  alpha Z        PSCENC =        20.01306473
  Ewald energy   TEWEN  =     64807.06088596
  -Hartree energ DENC   =    -68603.84594191
  -exchange      EXHF   =         0.00000000
  -V(xc)+E(xc)   XCENC  =       440.97737686
  PAW double counting   =     13474.37587435   -13496.11561526
  entropy T*S    EENTRO =         0.00000000
  eigenvalues    EBANDS =     -1646.88832464
  atomic energy  EATOM  =      4708.95331268
  Solvation  Ediel_sol  =         0.00000000
  ---------------------------------------------------
  free energy    TOTEN  =      -295.46936724 eV

  energy without entropy =     -295.46936724  energy(sigma->0) =     -295.46936724


--------------------------------------------------------------------------------------------------------




--------------------------------------- Iteration      1(  24)  ---------------------------------------


    POTLOK:  cpu time    1.1974: real time    1.2075
    SETDIJ:  cpu time    0.0130: real time    0.0130
     EDDAV:  cpu time  105.4156: real time  105.6711
 BZINTS: Fermi energy: -4.094803;128.000000 electrons
         Band energy:***********;  BLOECHL correction:  0.000000
       DOS:  cpu time    0.0035: real time    0.0035
    CHARGE:  cpu time    6.3433: real time    6.3582
    MIXING:  cpu time    0.0524: real time    0.0525
    --------------------------------------------
      LOOP:  cpu time  113.0252: real time  113.3060

 eigenvalue-minimisations  :  5634
 total energy-change (2. order) :-0.2050427E-02  (-0.4233711E-04)
 number of electron     127.9999991 magnetization       0.0025401
 augmentation part        3.0656887 magnetization       0.0025462

 Broyden mixing:
  rms(total) = 0.21191E-02    rms(broyden)= 0.21191E-02
  rms(prec ) = 0.26983E-02
  weight for this iteration     100.00

 eigenvalues of (default mixing * dielectric matrix)
  average eigenvalue GAMMA=   4.0258
 40.1367  9.9785  5.0441  3.3970  2.5178  2.5178  2.1399  1.5713  1.3171  1.1151
  0.9808  0.9808  0.8047  0.7608  0.7058  0.6651  0.6350  0.6108  0.6108

 Free energy of the ion-electron system (eV)
  ---------------------------------------------------
  alpha Z        PSCENC =        20.01306473
  Ewald energy   TEWEN  =     64807.06088596
  -Hartree energ DENC   =    -68606.54445771
  -exchange      EXHF   =         0.00000000
  -V(xc)+E(xc)   XCENC  =       440.99217347
  PAW double counting   =     13478.34230617   -13500.08379825
  entropy T*S    EENTRO =         0.00000000
  eigenvalues    EBANDS =     -1644.20490471
  atomic energy  EATOM  =      4708.95331268
  Solvation  Ediel_sol  =         0.00000000
  ---------------------------------------------------
  free energy    TOTEN  =      -295.47141766 eV

  energy without entropy =     -295.47141766  energy(sigma->0) =     -295.47141766


--------------------------------------------------------------------------------------------------------




--------------------------------------- Iteration      1(  25)  ---------------------------------------


    POTLOK:  cpu time    1.1679: real time    1.1775
    SETDIJ:  cpu time    0.0145: real time    0.0146
     EDDAV:  cpu time  102.8396: real time  103.0868
 BZINTS: Fermi energy: -4.098328;128.000000 electrons
         Band energy:***********;  BLOECHL correction:  0.000000
       DOS:  cpu time    0.0029: real time    0.0029
    CHARGE:  cpu time    6.2939: real time    6.3088
    MIXING:  cpu time    0.0525: real time    0.0526
    --------------------------------------------
      LOOP:  cpu time  110.3714: real time  110.6432

 eigenvalue-minimisations  :  5412
 total energy-change (2. order) :-0.7326641E-02  (-0.1854415E-04)
 number of electron     127.9999991 magnetization       0.0014675
 augmentation part        3.0655499 magnetization       0.0014629

 Broyden mixing:
  rms(total) = 0.14467E-02    rms(broyden)= 0.14467E-02
  rms(prec ) = 0.18338E-02
  weight for this iteration     100.00

 eigenvalues of (default mixing * dielectric matrix)
  average eigenvalue GAMMA=   3.9179
 40.1559  9.9779  5.1047  3.7143  2.6363  2.6363  2.1389  1.7729  1.4249  1.1946
  1.0074  1.0074  0.8716  0.7831  0.7462  0.6778  0.6581  0.6331  0.6088  0.6088

 Free energy of the ion-electron system (eV)
  ---------------------------------------------------
  alpha Z        PSCENC =        20.01306473
  Ewald energy   TEWEN  =     64807.06088596
  -Hartree energ DENC   =    -68608.60649783
  -exchange      EXHF   =         0.00000000
  -V(xc)+E(xc)   XCENC  =       440.99542684
  PAW double counting   =     13476.81740522   -13498.55911902
  entropy T*S    EENTRO =         0.00000000
  eigenvalues    EBANDS =     -1642.15322288
  atomic energy  EATOM  =      4708.95331268
  Solvation  Ediel_sol  =         0.00000000
  ---------------------------------------------------
  free energy    TOTEN  =      -295.47874430 eV

  energy without entropy =     -295.47874430  energy(sigma->0) =     -295.47874430


--------------------------------------------------------------------------------------------------------




--------------------------------------- Iteration      1(  26)  ---------------------------------------


    POTLOK:  cpu time    1.1586: real time    1.1684
    SETDIJ:  cpu time    0.0127: real time    0.0127
     EDDAV:  cpu time  102.0361: real time  102.2818
 BZINTS: Fermi energy: -4.059106;128.000000 electrons
         Band energy:***********;  BLOECHL correction:  0.000000
       DOS:  cpu time    0.0048: real time    0.0048
    CHARGE:  cpu time    6.2502: real time    6.2650
    MIXING:  cpu time    0.0516: real time    0.0517
    --------------------------------------------
      LOOP:  cpu time  109.5139: real time  109.7843

 eigenvalue-minimisations  :  5556
 total energy-change (2. order) :-0.3930828E-02  (-0.1005863E-04)
 number of electron     127.9999991 magnetization       0.0000922
 augmentation part        3.0654465 magnetization       0.0001138

 Broyden mixing:
  rms(total) = 0.95287E-03    rms(broyden)= 0.95286E-03
  rms(prec ) = 0.11889E-02
  weight for this iteration     100.00

 eigenvalues of (default mixing * dielectric matrix)
  average eigenvalue GAMMA=   3.8764
 40.1680  9.9798  5.3066  4.5004  2.9262  2.6159  2.1851  2.1851  1.5726  1.3103
  1.1563  1.0029  1.0029  0.8359  0.7680  0.7341  0.6717  0.6416  0.6289  0.6064
  0.6064

 Free energy of the ion-electron system (eV)
  ---------------------------------------------------
  alpha Z        PSCENC =        20.01306473
  Ewald energy   TEWEN  =     64807.06088596
  -Hartree energ DENC   =    -68610.34208866
  -exchange      EXHF   =         0.00000000
  -V(xc)+E(xc)   XCENC  =       441.00047804
  PAW double counting   =     13475.88410036   -13497.62504480
  entropy T*S    EENTRO =         0.00000000
  eigenvalues    EBANDS =     -1640.42738344
  atomic energy  EATOM  =      4708.95331268
  Solvation  Ediel_sol  =         0.00000000
  ---------------------------------------------------
  free energy    TOTEN  =      -295.48267513 eV

  energy without entropy =     -295.48267513  energy(sigma->0) =     -295.48267513


--------------------------------------------------------------------------------------------------------




--------------------------------------- Iteration      1(  27)  ---------------------------------------


    POTLOK:  cpu time    1.1584: real time    1.1679
    SETDIJ:  cpu time    0.0123: real time    0.0123
     EDDAV:  cpu time  103.8153: real time  104.0720
 BZINTS: Fermi energy: -4.026789;128.000000 electrons
         Band energy:***********;  BLOECHL correction:  0.000000
       DOS:  cpu time    0.0052: real time    0.0052
    CHARGE:  cpu time    6.2715: real time    6.2863
    MIXING:  cpu time    0.0553: real time    0.0555
    --------------------------------------------
      LOOP:  cpu time  111.3181: real time  111.5992

 eigenvalue-minimisations  :  5640
 total energy-change (2. order) :-0.1872981E-02  (-0.5425306E-05)
 number of electron     127.9999991 magnetization       0.0001621
 augmentation part        3.0653593 magnetization       0.0001619

 Broyden mixing:
  rms(total) = 0.48383E-03    rms(broyden)= 0.48383E-03
  rms(prec ) = 0.59479E-03
  weight for this iteration     100.00

 eigenvalues of (default mixing * dielectric matrix)
  average eigenvalue GAMMA=   3.8411
 40.1732  9.9849  6.2860  4.9358  3.0819  2.8181  2.2822  2.2822  1.6742  1.3930
  1.1944  1.0187  0.9664  0.9664  0.8055  0.7605  0.7267  0.6693  0.6447  0.6268
  0.6068  0.6068

 Free energy of the ion-electron system (eV)
  ---------------------------------------------------
  alpha Z        PSCENC =        20.01306473
  Ewald energy   TEWEN  =     64807.06088596
  -Hartree energ DENC   =    -68612.05038761
  -exchange      EXHF   =         0.00000000
  -V(xc)+E(xc)   XCENC  =       441.00706782
  PAW double counting   =     13475.46384349   -13497.20373045
  entropy T*S    EENTRO =         0.00000000
  eigenvalues    EBANDS =     -1638.72860473
  atomic energy  EATOM  =      4708.95331268
  Solvation  Ediel_sol  =         0.00000000
  ---------------------------------------------------
  free energy    TOTEN  =      -295.48454811 eV

  energy without entropy =     -295.48454811  energy(sigma->0) =     -295.48454811


--------------------------------------------------------------------------------------------------------




--------------------------------------- Iteration      1(  28)  ---------------------------------------


    POTLOK:  cpu time    1.1637: real time    1.1765
    SETDIJ:  cpu time    0.0137: real time    0.0137
     EDDAV:  cpu time  104.2711: real time  104.5296
 BZINTS: Fermi energy: -4.036031;128.000000 electrons
         Band energy:***********;  BLOECHL correction:  0.000000
       DOS:  cpu time    0.0053: real time    0.0053
    CHARGE:  cpu time    6.2835: real time    6.2983
    MIXING:  cpu time    0.0617: real time    0.0619
    --------------------------------------------
      LOOP:  cpu time  111.7990: real time  112.0853

 eigenvalue-minimisations  :  5616
 total energy-change (2. order) :-0.8495538E-03  (-0.9010165E-06)
 number of electron     127.9999991 magnetization       0.0001408
 augmentation part        3.0653162 magnetization       0.0001478

 Broyden mixing:
  rms(total) = 0.28660E-03    rms(broyden)= 0.28659E-03
  rms(prec ) = 0.35557E-03
  weight for this iteration     100.00

 eigenvalues of (default mixing * dielectric matrix)
  average eigenvalue GAMMA=   3.7710
 40.1746  9.9898  7.0501  4.9952  3.2296  2.8952  2.3021  2.3021  1.7650  1.4530
  1.2555  1.1144  0.9931  0.9931  0.8362  0.7844  0.7364  0.7181  0.6663  0.6406
  0.6219  0.6030  0.6129

 Free energy of the ion-electron system (eV)
  ---------------------------------------------------
  alpha Z        PSCENC =        20.01306473
  Ewald energy   TEWEN  =     64807.06088596
  -Hartree energ DENC   =    -68612.73891043
  -exchange      EXHF   =         0.00000000
  -V(xc)+E(xc)   XCENC  =       441.00908175
  PAW double counting   =     13474.72759149   -13496.46718870
  entropy T*S    EENTRO =         0.00000000
  eigenvalues    EBANDS =     -1638.04323515
  atomic energy  EATOM  =      4708.95331268
  Solvation  Ediel_sol  =         0.00000000
  ---------------------------------------------------
  free energy    TOTEN  =      -295.48539767 eV

  energy without entropy =     -295.48539767  energy(sigma->0) =     -295.48539767


[...]
     71       0.1300      0.00000
     72       0.1305      0.00000
     73       0.1839      0.00000
     74       0.1840      0.00000
     75       0.5857      0.00000
     76       0.6872      0.00000
     77       0.6934      0.00000
     78       0.9632      0.00000
     79       0.9633      0.00000
     80       1.1852      0.00000
     81       1.1854      0.00000
     82       1.2689      0.00000
     83       1.2690      0.00000
     84       1.3451      0.00000
     85       1.3453      0.00000
     86       1.3699      0.00000
     87       1.5424      0.00000
     88       1.5426      0.00000
     89       1.5983      0.00000
     90       1.6600      0.00000
     91       1.6602      0.00000
     92       1.6814      0.00000
     93       1.7579      0.00000
     94       1.7894      0.00000
     95       1.9543      0.00000
     96       1.9618      0.00000
     97       1.9620      0.00000
     98       2.0723      0.00000
     99       2.1139      0.00000
    100       2.1140      0.00000
    101       2.3733      0.00000
    102       2.5256      0.00000


--------------------------------------------------------------------------------------------------------


 soft charge-density along one line, spin component           1
         0         1         2         3         4         5         6         7         8         9
 total charge-density along one line
 
 soft charge-density along one line, spin component           2
         0         1         2         3         4         5         6         7         8         9
 total charge-density along one line
 
 pseudopotential strength for first ion, spin component:           1
 10.272  13.661   0.000  -0.000  -0.000  -0.000   0.000   0.000
 13.661  18.168   0.000  -0.000  -0.000  -0.000   0.000   0.000
  0.000   0.000  -4.396   0.000   0.000   8.598  -0.000  -0.000
 -0.000  -0.000   0.000  -4.388   0.000  -0.000   8.588  -0.000
 -0.000  -0.000   0.000   0.000  -4.396  -0.000  -0.000   8.598
 -0.000  -0.000   8.598  -0.000  -0.000 -18.957   0.000   0.000
  0.000   0.000  -0.000   8.588  -0.000   0.000 -18.948   0.000
  0.000   0.000  -0.000  -0.000   8.598   0.000   0.000 -18.957
 pseudopotential strength for first ion, spin component:           2
 10.272  13.661   0.000  -0.000  -0.000  -0.000   0.000   0.000
 13.661  18.168   0.000  -0.000  -0.000  -0.000   0.000   0.000
  0.000   0.000  -4.396   0.000   0.000   8.598  -0.000  -0.000
 -0.000  -0.000   0.000  -4.388   0.000  -0.000   8.588  -0.000
 -0.000  -0.000   0.000   0.000  -4.396  -0.000  -0.000   8.598
 -0.000  -0.000   8.598  -0.000  -0.000 -18.957   0.000   0.000
  0.000   0.000  -0.000   8.588  -0.000   0.000 -18.948   0.000
  0.000   0.000  -0.000  -0.000   8.598   0.000   0.000 -18.957
 total augmentation occupancy for first ion, spin component:           1
  8.079  -3.581   0.000  -0.000  -0.001   0.000  -0.000  -0.000
 -3.581   1.644  -0.000   0.000   0.000  -0.000   0.000   0.000
  0.000  -0.000   1.830   0.000  -0.000   0.172   0.000  -0.000
 -0.000   0.000   0.000   1.197   0.000   0.000   0.073   0.000
 -0.001   0.000  -0.000   0.000   1.830  -0.000   0.000   0.172
  0.000  -0.000   0.172   0.000  -0.000   0.018   0.000  -0.000
 -0.000   0.000   0.000   0.073   0.000   0.000   0.005   0.000
 -0.000   0.000  -0.000   0.000   0.172  -0.000   0.000   0.018
 total augmentation occupancy for first ion, spin component:           2
 -0.000   0.000   0.000   0.000  -0.000  -0.000  -0.000  -0.000
  0.000  -0.000  -0.000  -0.000   0.000   0.000   0.000   0.000
  0.000  -0.000   0.000   0.000   0.000  -0.000  -0.000   0.000
  0.000  -0.000   0.000   0.000   0.000   0.000  -0.000   0.000
 -0.000   0.000   0.000   0.000   0.000  -0.000   0.000  -0.000
 -0.000   0.000  -0.000   0.000  -0.000  -0.000   0.000  -0.000
 -0.000   0.000  -0.000  -0.000   0.000   0.000  -0.000   0.000
 -0.000   0.000   0.000   0.000  -0.000  -0.000   0.000  -0.000


------------------------ aborting loop because EDIFF is reached ----------------------------------------


    CHARGE:  cpu time    6.2784: real time    6.2963
    FORLOC:  cpu time    0.0965: real time    0.0967
    FORNL :  cpu time   16.0339: real time   16.0718
    STRESS:  cpu time   52.7131: real time   52.8378
    FORCOR:  cpu time    1.1641: real time    1.1668
    FORHAR:  cpu time    0.2061: real time    0.2070
    MIXING:  cpu time    0.1167: real time    0.1170
    OFIELD:  cpu time    0.0002: real time    0.0002

  Hirshfeld charges:
            ion         q(e)     
   ------------------------------
      1     C           0.000
      2     C          -0.000
      3     C           0.000
      4     C          -0.000
      5     C           0.000
      6     C          -0.000
      7     C           0.000
      8     C          -0.000
      9     C           0.000
     10     C          -0.000
     11     C           0.000
     12     C          -0.000
     13     C           0.000
     14     C          -0.000
     15     C           0.000
     16     C          -0.000
     17     C           0.000
     18     C          -0.000
     19     C           0.000
     20     C          -0.000
     21     C           0.000
     22     C          -0.000
     23     C           0.000
     24     C          -0.000
     25     C           0.000
     26     C          -0.000
     27     C           0.000
     28     C          -0.000
     29     C           0.000
     30     C          -0.000
     31     C           0.000
     32     C          -0.000

  Atomic reference data used in the T-S method for vdW correction:
            C6at              R0at           ALPHAat      REFSTATE
            (au)              (au)            (au)                
   ---------------------------------------------------------------
   C          46.600          3.590         12.000         0

  Tkatchenko/Scheffler method for vdW energy calculation
  ---------------------------------------------------------------------------------------------

  Parameters of vdW forcefield:
            C6ts              R0ts           ALPHAts        RELVOL
            (au)              (au)            (au)                
   ---------------------------------------------------------------
   C          32.905          3.388         10.084          0.840
   C          32.905          3.388         10.084          0.840
   C          32.905          3.388         10.084          0.840
   C          32.905          3.388         10.084          0.840
   C          32.905          3.388         10.084          0.840
   C          32.905          3.388         10.084          0.840
   C          32.905          3.388         10.084          0.840
   C          32.905          3.388         10.084          0.840
   C          32.905          3.388         10.084          0.840
   C          32.905          3.388         10.084          0.840
   C          32.905          3.388         10.084          0.840
   C          32.905          3.388         10.084          0.840
   C          32.905          3.388         10.084          0.840
   C          32.905          3.388         10.084          0.840
   C          32.905          3.388         10.084          0.840
   C          32.905          3.388         10.084          0.840
   C          32.905          3.388         10.084          0.840
   C          32.905          3.388         10.084          0.840
   C          32.905          3.388         10.084          0.840
   C          32.905          3.388         10.084          0.840
   C          32.905          3.388         10.084          0.840
   C          32.905          3.388         10.084          0.840
   C          32.905          3.388         10.084          0.840
   C          32.905          3.388         10.084          0.840
   C          32.905          3.388         10.084          0.840
   C          32.905          3.388         10.084          0.840
   C          32.905          3.388         10.084          0.840
   C          32.905          3.388         10.084          0.840
   C          32.905          3.388         10.084          0.840
   C          32.905          3.388         10.084          0.840
   C          32.905          3.388         10.084          0.840
   C          32.905          3.388         10.084          0.840

  IVDW = 202
  VDW_RADIUS =    50.000 A
  VDW_SR =     0.830
  VDW_D =     6.000
  SCSRAD =   120.000 A
  LSCSGRAD = T
  LSCALER0 = T
  Edisp (eV):   -2.66015
    FORVDW:  cpu time   11.1666: real time   11.2038

  FORCE on cell =-STRESS in cart. coord.  units (eV):
  Direction    XX          YY          ZZ          XY          YZ          ZX
  --------------------------------------------------------------------------------------
  Alpha Z    20.01306    20.01306    20.01306
  Ewald   69113.54693 69113.09197-73419.57969    -1.51822     0.00501     0.00635
  Hartree 68432.84079 68432.78492-68252.02856    -0.18548     0.00481     0.00609
  E(xc)    -475.67823  -475.68009  -493.51607    -0.00626     0.00000     0.00000
  Local  ************************140059.59453     1.40520    -0.00981    -0.01242
  n-local  -113.60547  -113.61721  -103.74862    -0.04046     0.00000     0.00000
  augment   -12.48605   -12.48534   -11.49832     0.00249     0.00002     0.00002
  Kinetic  1924.00271  1924.13035  2200.56404     0.43411    -0.00001    -0.00002
  Fock        0.00000     0.00000     0.00000     0.00000     0.00000     0.00000
  vdW        -3.17986    -3.17990     0.00824    -0.00014    -0.00000    -0.00000
  -------------------------------------------------------------------------------------
  Total      -0.07120    -0.04592    -0.19139     0.09124     0.00002     0.00002
  in kB      -0.02714    -0.01750    -0.07296     0.03478     0.00001     0.00001
  external pressure =       -0.04 kB  Pullay stress =        0.00 kB


 VOLUME and BASIS-vectors are now :
 -----------------------------------------------------------------------------
  energy-cutoff  :      850.00
  volume of cell :     4203.17
      direct lattice vectors                 reciprocal lattice vectors
     9.854323835 -0.004993466  0.000000439     0.101448593 -0.058618088 -0.000000002
     4.929482092  8.531309007  0.000000519     0.000059379  0.117180997 -0.000000004
     0.000002224  0.000001756 49.981227789    -0.000000001 -0.000000001  0.020007512

  length of vectors
     9.854325101  9.853071961 49.981227789     0.117166110  0.117181012  0.020007512


 FORCES acting on ions
    electron-ion (+dipol)            ewald-force                    non-local-force                 convergence-correction
 -----------------------------------------------------------------------------------------------
   -.224E-01 0.366E-02 -.946E-06   0.382E-01 -.606E-02 -.274E-06   0.885E-02 -.134E-02 0.157E-04   0.348E-07 -.956E-06 -.206E-06
   0.223E-01 -.366E-02 -.133E-05   -.382E-01 0.606E-02 0.566E-07   -.887E-02 0.133E-02 0.158E-04   -.716E-06 -.161E-05 -.203E-06
   -.224E-01 0.366E-02 -.112E-05   0.382E-01 -.606E-02 -.776E-07   0.885E-02 -.134E-02 0.157E-04   -.122E-05 -.465E-06 -.221E-06
   0.223E-01 -.366E-02 -.133E-05   -.382E-01 0.606E-02 0.751E-07   -.887E-02 0.133E-02 0.158E-04   -.450E-06 0.675E-06 -.212E-06
   -.223E-01 0.366E-02 -.748E-06   0.382E-01 -.606E-02 -.488E-06   0.885E-02 -.135E-02 0.157E-04   -.404E-06 0.181E-05 -.198E-06
   0.223E-01 -.366E-02 -.180E-05   -.382E-01 0.606E-02 0.536E-06   -.887E-02 0.133E-02 0.158E-04   -.263E-07 0.140E-05 -.209E-06
   -.224E-01 0.367E-02 -.174E-05   0.382E-01 -.607E-02 0.503E-06   0.885E-02 -.135E-02 0.157E-04   -.167E-06 0.609E-06 -.199E-06
   0.223E-01 -.366E-02 -.170E-05   -.382E-01 0.606E-02 0.419E-06   -.887E-02 0.133E-02 0.158E-04   -.290E-06 0.428E-06 -.203E-06
   -.223E-01 0.366E-02 -.109E-05   0.382E-01 -.606E-02 -.137E-06   0.885E-02 -.134E-02 0.157E-04   -.341E-06 -.159E-05 -.208E-06
   0.223E-01 -.366E-02 -.151E-05   -.382E-01 0.606E-02 0.262E-06   -.887E-02 0.133E-02 0.158E-04   0.322E-06 -.187E-05 -.217E-06
   -.223E-01 0.366E-02 -.627E-06   0.382E-01 -.606E-02 -.599E-06   0.885E-02 -.134E-02 0.157E-04   0.876E-06 -.307E-06 -.205E-06
   0.224E-01 -.366E-02 -.118E-05   -.382E-01 0.606E-02 -.844E-07   -.887E-02 0.133E-02 0.158E-04   0.134E-05 0.253E-06 -.209E-06
   -.223E-01 0.366E-02 -.877E-06   0.382E-01 -.606E-02 -.346E-06   0.885E-02 -.134E-02 0.157E-04   0.409E-06 0.690E-06 -.208E-06
   0.223E-01 -.366E-02 -.155E-05   -.382E-01 0.606E-02 0.283E-06   -.887E-02 0.133E-02 0.158E-04   0.327E-06 0.392E-06 -.209E-06
   -.223E-01 0.366E-02 -.105E-05   0.382E-01 -.606E-02 -.181E-06   0.885E-02 -.134E-02 0.157E-04   0.121E-06 0.593E-06 -.200E-06
   0.223E-01 -.366E-02 -.119E-05   -.382E-01 0.606E-02 -.853E-07   -.887E-02 0.133E-02 0.158E-04   0.153E-06 0.697E-08 -.204E-06
   -.223E-01 0.366E-02 -.111E-05   0.382E-01 -.606E-02 -.109E-06   0.885E-02 -.134E-02 0.157E-04   0.500E-06 -.175E-05 -.211E-06
   0.224E-01 -.366E-02 -.183E-05   -.382E-01 0.606E-02 0.554E-06   -.887E-02 0.133E-02 0.158E-04   0.536E-06 -.771E-06 -.205E-06
   -.223E-01 0.366E-02 -.389E-06   0.382E-01 -.605E-02 -.830E-06   0.885E-02 -.134E-02 0.157E-04   0.105E-05 0.167E-06 -.211E-06
   0.224E-01 -.366E-02 -.123E-05   -.382E-01 0.606E-02 -.581E-07   -.887E-02 0.133E-02 0.158E-04   0.380E-06 -.156E-06 -.195E-06
   -.223E-01 0.366E-02 -.637E-06   0.382E-01 -.606E-02 -.588E-06   0.885E-02 -.134E-02 0.157E-04   0.548E-06 -.155E-06 -.206E-06
   0.223E-01 -.366E-02 -.156E-05   -.382E-01 0.606E-02 0.275E-06   -.887E-02 0.133E-02 0.157E-04   0.376E-06 0.356E-06 -.195E-06
   -.223E-01 0.366E-02 -.582E-06   0.382E-01 -.606E-02 -.651E-06   0.885E-02 -.134E-02 0.157E-04   0.569E-06 0.162E-06 -.205E-06
   0.224E-01 -.366E-02 -.126E-05   -.382E-01 0.606E-02 0.132E-08   -.887E-02 0.133E-02 0.158E-04   0.598E-06 -.469E-06 -.209E-06
   -.223E-01 0.366E-02 -.208E-05   0.382E-01 -.606E-02 0.856E-06   0.885E-02 -.134E-02 0.157E-04   -.194E-06 -.864E-06 -.207E-06
   0.223E-01 -.366E-02 -.142E-05   -.382E-01 0.606E-02 0.144E-06   -.887E-02 0.133E-02 0.158E-04   -.118E-06 -.450E-06 -.209E-06
   -.224E-01 0.366E-02 -.548E-06   0.382E-01 -.606E-02 -.677E-06   0.885E-02 -.134E-02 0.157E-04   -.651E-06 0.507E-06 -.206E-06
   0.223E-01 -.366E-02 -.169E-05   -.382E-01 0.606E-02 0.424E-06   -.887E-02 0.133E-02 0.157E-04   -.130E-05 0.434E-06 -.208E-06
   -.224E-01 0.366E-02 -.680E-06   0.382E-01 -.606E-02 -.547E-06   0.885E-02 -.135E-02 0.157E-04   -.551E-06 0.966E-06 -.209E-06
   0.223E-01 -.366E-02 -.136E-05   -.382E-01 0.606E-02 0.111E-06   -.887E-02 0.133E-02 0.157E-04   -.681E-06 0.157E-05 -.218E-06
   -.223E-01 0.367E-02 -.961E-06   0.382E-01 -.607E-02 -.283E-06   0.885E-02 -.135E-02 0.157E-04   -.521E-06 0.483E-06 -.196E-06
   0.224E-01 -.366E-02 -.278E-05   -.382E-01 0.606E-02 0.152E-05   -.887E-02 0.133E-02 0.157E-04   -.454E-06 -.496E-07 -.207E-06
 -----------------------------------------------------------------------------------------------
   0.854E-05 0.758E-05 -.399E-04   -.326E-13 0.447E-13 0.323E-15   -.290E-03 -.230E-03 0.504E-03   0.427E-07 0.299E-07 -.661E-05
 
 
 POSITION                                       TOTAL-FORCE (eV/Angst)
 -----------------------------------------------------------------------------------
     14.78245      8.52548     23.39122         0.024640     -0.003724      0.000000
      1.23113      0.70961     23.39121        -0.024639      0.003724     -0.000000
     11.08534      2.12699     23.39122         0.024639     -0.003724      0.000000
      2.46350      2.84244     23.39121        -0.024638      0.003724      0.000000
     12.31771      4.25982     23.39122         0.024639     -0.003726      0.000000
      3.69587      4.97527     23.39121        -0.024639      0.003725     -0.000000
     13.55008      6.39265     23.39122         0.024640     -0.003726      0.000000
      4.92824      7.10809     23.39122        -0.024640      0.003725     -0.000000
      7.39171      8.52922     23.39122         0.024639     -0.003725     -0.000000
      3.69471      0.70836     23.39121        -0.024638      0.003725     -0.000000
      3.69459      2.13074     23.39121         0.024639     -0.003724      0.000000
      4.92708      2.84119     23.39121        -0.024639      0.003724     -0.000000
      4.92696      4.26357     23.39121         0.024639     -0.003725      0.000000
      6.15945      4.97402     23.39122        -0.024640      0.003724     -0.000000
      6.15933      6.39639     23.39122         0.024640     -0.003725      0.000000
      7.39182      7.10685     23.39122        -0.024639      0.003726     -0.000000
      9.85529      8.52797     23.39122         0.024637     -0.003724      0.000000
      6.15829      0.70712     23.39121        -0.024639      0.003724     -0.000000
      6.15817      2.12949     23.39121         0.024639     -0.003723      0.000000
      7.39066      2.83994     23.39122        -0.024640      0.003724     -0.000000
      7.39055      4.26232     23.39122         0.024639     -0.003725      0.000000
      8.62303      4.97277     23.39122        -0.024639      0.003725     -0.000000
      8.62292      6.39515     23.39122         0.024638     -0.003725      0.000000
      9.85540      7.10560     23.39122        -0.024638      0.003726     -0.000000
     12.31887      8.52672     23.39122         0.024639     -0.003724     -0.000000
      8.62187      0.70587     23.39122        -0.024640      0.003723      0.000000
      8.62176      2.12824     23.39122         0.024639     -0.003723      0.000000
      9.85424      2.83869     23.39122        -0.024639      0.003724     -0.000000
      9.85413      4.26107     23.39122         0.024639     -0.003725      0.000000
     11.08661      4.97152     23.39122        -0.024638      0.003726     -0.000000
     11.08650      6.39390     23.39122         0.024638     -0.003727      0.000000
     12.31898      7.10435     23.39122        -0.024639      0.003725     -0.000000
 -----------------------------------------------------------------------------------
    total drift:                               -0.000282     -0.000223      0.000457


--------------------------------------------------------------------------------------------------------



  FREE ENERGIE OF THE ION-ELECTRON SYSTEM (eV)
  ---------------------------------------------------
  free  energy   TOTEN  =      -298.14616361 eV

  energy  without entropy=     -298.14616361  energy(sigma->0) =     -298.14616361
 


--------------------------------------------------------------------------------------------------------


    POTLOK:  cpu time    1.2190: real time    1.2235


--------------------------------------------------------------------------------------------------------


     LOOP+:  cpu time 4641.7904: real time 4653.6193
    4ORBIT:  cpu time    0.0000: real time    0.0000
 BZINTS: Fermi energy: -4.044218;128.000000 electrons
         Band energy:***********;  BLOECHL correction:  0.000000

 total amount of memory used by VASP MPI-rank0   417715. kBytes
=======================================================================

   base      :      30000. kBytes
   nonl-proj :      39747. kBytes
   fftplans  :      41100. kBytes
   grid      :      97443. kBytes
   one-center:         24. kBytes
   wavefun   :     209401. kBytes
 
  
  
 General timing and accounting informations for this job:
 ========================================================
  
                  Total CPU time used (sec):     4683.698
                            User time (sec):     4428.712
                          System time (sec):      254.985
                         Elapsed time (sec):     4696.034
  
                   Maximum memory used (kb):      526644.
                   Average memory used (kb):           0.
  
                          Minor page faults:      5688321
                          Major page faults:            5
                 Voluntary context switches:         3119
