<?xml version="1.0" encoding="ISO-8859-1"?>
<modeling>
 <generator>
  <i name="program" type="string">vasp </i>
  <i name="version" type="string">5.4.4.18Apr17-6-g9f103f2a35  </i>
  <i name="subversion" type="string">(build Jan 12 2023 11:40:15) complex            parallel </i>
  <i name="platform" type="string">LinuxIFC </i>
  <i name="date" type="string">2024 01 13 </i>
  <i name="time" type="string">00:35:03 </i>
 </generator>
 <incar>
  <i type="int" name="ISTART">     0</i>
  <i type="string" name="PREC">accurate   (precision level)</i>
  <i type="string" name="ALGO"> Normal</i>
  <i type="int" name="ISPIN">     2</i>
  <i type="int" name="ICHARG">     2</i>
  <i type="int" name="NELM">   150</i>
  <i type="int" name="IBRION">    -1</i>
  <i name="EDIFF">      0.00000010</i>
  <i type="int" name="NSW">     1</i>
  <i type="int" name="ISYM">     0</i>
  <i name="ENCUT">    850.00000000</i>
  <i type="logical" name="LREAL"> F  </i>
  <i type="int" name="ISMEAR">    -5</i>
  <i name="SIGMA">      0.02000000</i>
  <i name="KSPACING">      0.15000000</i>
  <i type="logical" name="KGAMMA"> T  </i>
  <i type="logical" name="LWAVE"> F  </i>
  <i type="logical" name="LCHARG"> F  </i>
  <v type="int" name="KPOINT_BSE">    -1     0     0     0</v>
  <i type="int" name="NELM">   150</i>
 </incar>
 <structure name="primitive_cell" >
  <crystal>
   <varray name="basis" >
    <v>       9.85432384      -0.00499347       0.00000044 </v>
    <v>       4.92948209       8.53130901       0.00000052 </v>
    <v>       0.00000222       0.00000176      49.98122779 </v>
   </varray>
   <i name="volume">   4203.16619791 </i>
   <varray name="rec_basis" >
    <v>       0.10144859      -0.05861809      -0.00000000 </v>
    <v>       0.00005938       0.11718100      -0.00000000 </v>
    <v>      -0.00000000      -0.00000000       0.02000751 </v>
   </varray>
  </crystal>
  <varray name="positions" >
   <v>      -0.00008863      -0.00009848       0.46800000 </v>
   <v>      -0.16669979       0.08322603       0.46800000 </v>
   <v>       0.08330022      -0.16677398       0.46800000 </v>
   <v>       0.08330021       0.08322602       0.46800000 </v>
   <v>      -0.00008863      -0.25009848       0.46800000 </v>
   <v>      -0.00008863       0.24990152       0.46800000 </v>
   <v>      -0.25008863      -0.00009848       0.46800000 </v>
   <v>       0.24991137      -0.00009848       0.46800000 </v>
   <v>      -0.25008863       0.24990152       0.46800000 </v>
   <v>       0.24991137      -0.25009848       0.46800000 </v>
   <v>      -0.16669978      -0.16677398       0.46800000 </v>
   <v>      -0.16669979       0.33322603       0.46800000 </v>
   <v>       0.33330022      -0.16677398       0.46800000 </v>
   <v>       0.08330021      -0.41677397       0.46800000 </v>
   <v>      -0.41669978       0.08322602       0.46800000 </v>
   <v>       0.08330021       0.33322603       0.46800000 </v>
   <v>      -0.41669978       0.33322602       0.46800000 </v>
   <v>       0.33330022       0.08322602       0.46800000 </v>
   <v>       0.33330022      -0.41677398       0.46800000 </v>
   <v>      -0.25008863      -0.25009848       0.46800000 </v>
   <v>       0.24991137       0.24990152       0.46800000 </v>
   <v>       0.24991137       0.49990152       0.46800000 </v>
   <v>      -0.25008863       0.49990152       0.46800000 </v>
   <v>       0.49991138       0.24990152       0.46800000 </v>
   <v>       0.49991137      -0.25009848       0.46800000 </v>
   <v>      -0.00008863       0.49990152       0.46800000 </v>
   <v>       0.49991138      -0.00009848       0.46800000 </v>
   <v>       0.49991137       0.49990152       0.46800000 </v>
   <v>      -0.16669979      -0.41677398       0.46800000 </v>
   <v>      -0.41669978      -0.16677398       0.46800000 </v>
   <v>      -0.41669978      -0.41677398       0.46800000 </v>
   <v>       0.33330022       0.33322602       0.46800000 </v>
  </varray>
 </structure>
 <varray name="primitive_index" >
  <v type="int" >        1 </v>
  <v type="int" >       26 </v>
  <v type="int" >        8 </v>
  <v type="int" >        2 </v>
  <v type="int" >        7 </v>
  <v type="int" >        3 </v>
  <v type="int" >       25 </v>
  <v type="int" >        9 </v>
  <v type="int" >       27 </v>
  <v type="int" >       15 </v>
  <v type="int" >       32 </v>
  <v type="int" >       28 </v>
  <v type="int" >       16 </v>
  <v type="int" >        6 </v>
  <v type="int" >       18 </v>
  <v type="int" >        4 </v>
  <v type="int" >       20 </v>
  <v type="int" >       10 </v>
  <v type="int" >       14 </v>
  <v type="int" >       31 </v>
  <v type="int" >       11 </v>
  <v type="int" >       13 </v>
  <v type="int" >       29 </v>
  <v type="int" >       19 </v>
  <v type="int" >       23 </v>
  <v type="int" >        5 </v>
  <v type="int" >       17 </v>
  <v type="int" >       21 </v>
  <v type="int" >       30 </v>
  <v type="int" >       24 </v>
  <v type="int" >       22 </v>
  <v type="int" >       12 </v>
 </varray>
 <kpoints>
  <generation param="Gamma">
   <v type="int" name="divisions">       5        5        1 </v>
   <v name="usershift">      0.00000000       0.00000000       0.00000000 </v>
   <v name="genvec1">      0.20000000      -0.00000000      -0.00000000 </v>
   <v name="genvec2">     -0.00000000       0.20000000      -0.00000000 </v>
   <v name="genvec3">     -0.00000000      -0.00000000       1.00000000 </v>
   <v name="shift">      0.00000000       0.00000000       0.00000000 </v>
  </generation>
  <varray name="kpointlist" >
   <v>       0.00000000       0.00000000       0.00000000 </v>
   <v>       0.20000000      -0.00000000       0.00000000 </v>
   <v>       0.40000000      -0.00000000       0.00000000 </v>
   <v>      -0.00000000       0.20000000       0.00000000 </v>
   <v>       0.20000000       0.20000000       0.00000000 </v>
   <v>       0.40000000       0.20000000       0.00000000 </v>
   <v>      -0.40000000       0.20000000       0.00000000 </v>
   <v>      -0.20000000       0.20000000       0.00000000 </v>
   <v>      -0.00000000       0.40000000       0.00000000 </v>
   <v>       0.20000000       0.40000000       0.00000000 </v>
   <v>       0.40000000       0.40000000       0.00000000 </v>
   <v>      -0.40000000       0.40000000       0.00000000 </v>
   <v>      -0.20000000       0.40000000       0.00000000 </v>
  </varray>
  <varray name="weights" >
   <v>       0.04000000 </v>
   <v>       0.08000000 </v>
   <v>       0.08000000 </v>
   <v>       0.08000000 </v>
   <v>       0.08000000 </v>
   <v>       0.08000000 </v>
   <v>       0.08000000 </v>
   <v>       0.08000000 </v>
   <v>       0.08000000 </v>
   <v>       0.08000000 </v>
   <v>       0.08000000 </v>
   <v>       0.08000000 </v>
   <v>       0.08000000 </v>
  </varray>
  <varray name="tetrahedronlist"  type="int" >
   <v type="int" >        2        1        1        2        5 </v>
   <v type="int" >        2        1        1        4        5 </v>
   <v type="int" >        2        1        4        4        5 </v>
   <v type="int" >        2        1        2        2        5 </v>
   <v type="int" >        2        1        2        5        5 </v>
   <v type="int" >        2        1        4        5        5 </v>
   <v type="int" >        2        2        2        3        6 </v>
   <v type="int" >        2        2        2        5        6 </v>
   <v type="int" >        2        2        5        5        6 </v>
   <v type="int" >        2        2        3        3        6 </v>
   <v type="int" >        2        2        3        6        6 </v>
   <v type="int" >        2        2        5        6        6 </v>
   <v type="int" >        4        3        3        3        7 </v>
   <v type="int" >        2        3        3        6        7 </v>
   <v type="int" >        2        3        6        6        7 </v>
   <v type="int" >        2        3        3        7        7 </v>
   <v type="int" >        2        3        6        7        7 </v>
   <v type="int" >        2        2        3        3        8 </v>
   <v type="int" >        2        3        3        7        8 </v>
   <v type="int" >        2        3        7        7        8 </v>
   <v type="int" >        2        2        2        3        8 </v>
   <v type="int" >        2        2        3        8        8 </v>
   <v type="int" >        2        3        7        8        8 </v>
   <v type="int" >        2        1        2        2        4 </v>
   <v type="int" >        2        2        2        4        8 </v>
   <v type="int" >        2        2        4        8        8 </v>
   <v type="int" >        2        1        1        2        4 </v>
   <v type="int" >        2        1        2        4        4 </v>
   <v type="int" >        2        2        4        4        8 </v>
   <v type="int" >        2        4        4        5       10 </v>
   <v type="int" >        2        4        4        9       10 </v>
   <v type="int" >        2        4        9        9       10 </v>
   <v type="int" >        2        4        5        5       10 </v>
   <v type="int" >        2        4        5       10       10 </v>
   <v type="int" >        2        4        9       10       10 </v>
   <v type="int" >        2        5        5        6       11 </v>
   <v type="int" >        2        5        5       10       11 </v>
   <v type="int" >        2        5       10       10       11 </v>
   <v type="int" >        2        5        6        6       11 </v>
   <v type="int" >        2        5        6       11       11 </v>
   <v type="int" >        2        5       10       11       11 </v>
   <v type="int" >        2        6        6        7       12 </v>
   <v type="int" >        2        6        6       11       12 </v>
   <v type="int" >        2        6       11       11       12 </v>
   <v type="int" >        2        6        7        7       12 </v>
   <v type="int" >        2        6        7       12       12 </v>
   <v type="int" >        2        6       11       12       12 </v>
   <v type="int" >        2        7        7        8       13 </v>
   <v type="int" >        2        7        7       12       13 </v>
   <v type="int" >        2        7       12       12       13 </v>
   <v type="int" >        2        7        8        8       13 </v>
   <v type="int" >        2        7        8       13       13 </v>
   <v type="int" >        2        7       12       13       13 </v>
   <v type="int" >        2        4        8        8        9 </v>
   <v type="int" >        2        8        8        9       13 </v>
   <v type="int" >        2        8        9       13       13 </v>
   <v type="int" >        2        4        4        8        9 </v>
   <v type="int" >        2        4        8        9        9 </v>
   <v type="int" >        2        8        9        9       13 </v>
   <v type="int" >        2        9        9       10       13 </v>
   <v type="int" >        4        9        9        9       13 </v>
   <v type="int" >        2        9       10       10       13 </v>
   <v type="int" >        2        9       10       13       13 </v>
   <v type="int" >        2        9        9       13       13 </v>
   <v type="int" >        2       10       10       11       12 </v>
   <v type="int" >        2       10       10       12       13 </v>
   <v type="int" >        2       10       12       13       13 </v>
   <v type="int" >        2       10       11       11       12 </v>
   <v type="int" >        2       10       11       12       12 </v>
   <v type="int" >        2       10       12       12       13 </v>
   <v type="int" >        4       11       11       11       12 </v>
   <v type="int" >        2       11       11       12       12 </v>
  </varray>
  <i name="volumeweight">      0.00666667 </i>
 </kpoints>
 <parameters>
  <separator name="general" >
   <i type="string" name="SYSTEM">unknown system</i>
   <i type="logical" name="LCOMPAT"> F  </i>
  </separator>
  <separator name="electronic" >
   <i type="string" name="PREC">accura</i>
   <i name="ENMAX">    850.00000000</i>
   <i name="ENAUG">    644.87300000</i>
   <i name="EDIFF">      0.00000010</i>
   <i type="int" name="IALGO">    38</i>
   <i type="int" name="IWAVPR">    10</i>
   <i type="int" name="NBANDS">   102</i>
   <i name="NELECT">    128.00000000</i>
   <i type="int" name="TURBO">     0</i>
   <i type="int" name="IRESTART">     0</i>
   <i type="int" name="NREBOOT">     0</i>
   <i type="int" name="NMIN">     0</i>
   <i name="EREF">      0.00000000</i>
   <separator name="electronic smearing" >
    <i type="int" name="ISMEAR">    -5</i>
    <i name="SIGMA">      0.02000000</i>
    <i name="KSPACING">      0.15000000</i>
    <i type="logical" name="KGAMMA"> T  </i>
   </separator>
   <separator name="electronic projectors" >
    <i type="logical" name="LREAL"> F  </i>
    <v name="ROPT">      0.00000000</v>
    <i type="int" name="LMAXPAW">  -100</i>
    <i type="int" name="LMAXMIX">     2</i>
    <i type="logical" name="NLSPLINE"> F  </i>
   </separator>
   <separator name="electronic startup" >
    <i type="int" name="ISTART">     0</i>
    <i type="int" name="ICHARG">     2</i>
    <i type="int" name="INIWAV">     1</i>
   </separator>
   <separator name="electronic spin" >
    <i type="int" name="ISPIN">     2</i>
    <i type="logical" name="LNONCOLLINEAR"> F  </i>
    <v name="MAGMOM">      1.00000000      1.00000000      1.00000000      1.00000000      1.00000000      1.00000000      1.00000000      1.00000000      1.00000000      1.00000000      1.00000000      1.00000000      1.00000000      1.00000000      1.00000000      1.00000000      1.00000000      1.00000000      1.00000000      1.00000000
      1.00000000      1.00000000      1.00000000      1.00000000      1.00000000      1.00000000      1.00000000      1.00000000      1.00000000      1.00000000      1.00000000      1.00000000</v>
    <i name="NUPDOWN">     -1.00000000</i>
    <i type="logical" name="LSORBIT"> F  </i>
    <v name="SAXIS">      0.00000000      0.00000000      1.00000000</v>
    <i type="logical" name="LSPIRAL"> F  </i>
    <v name="QSPIRAL">      0.00000000      0.00000000      0.00000000</v>
    <i type="logical" name="LZEROZ"> F  </i>
   </separator>
   <separator name="electronic exchange-correlation" >
    <i type="logical" name="LASPH"> F  </i>
    <i type="logical" name="LMETAGGA"> F  </i>
   </separator>
   <separator name="electronic convergence" >
    <i type="int" name="NELM">   150</i>
    <i type="int" name="NELMDL">    -5</i>
    <i type="int" name="NELMIN">     2</i>
    <i name="ENINI">    850.00000000</i>
    <separator name="electronic convergence detail" >
     <i type="logical" name="LDIAG"> T  </i>
     <i type="logical" name="LSUBROT"> F  </i>
     <i name="WEIMIN">      0.00000000</i>
     <i name="EBREAK">      0.00000000</i>
     <i name="DEPER">      0.30000000</i>
     <i type="int" name="NRMM">     4</i>
     <i name="TIME">      0.40000000</i>
    </separator>
   </separator>
   <separator name="electronic mixer" >
    <i name="AMIX">      0.40000000</i>
    <i name="BMIX">      1.00000000</i>
    <i name="AMIN">      0.10000000</i>
    <i name="AMIX_MAG">      1.60000000</i>
    <i name="BMIX_MAG">      1.00000000</i>
    <separator name="electronic mixer details" >
     <i type="int" name="IMIX">     4</i>
     <i type="logical" name="MIXFIRST"> F  </i>
     <i type="int" name="MAXMIX">   -45</i>
     <i name="WC">    100.00000000</i>
     <i type="int" name="INIMIX">     1</i>
     <i type="int" name="MIXPRE">     1</i>
     <i type="int" name="MREMOVE">     5</i>
    </separator>
   </separator>
   <separator name="electronic dipolcorrection" >
    <i type="logical" name="LDIPOL"> F  </i>
    <i type="logical" name="LMONO"> F  </i>
    <i type="int" name="IDIPOL">     0</i>
    <i name="EPSILON">      1.00000000</i>
    <v name="DIPOL">   -100.00000000   -100.00000000   -100.00000000</v>
    <i name="EFIELD">      0.00000000</i>
   </separator>
  </separator>
  <separator name="grids" >
   <i type="int" name="NGX">    96</i>
   <i type="int" name="NGY">    96</i>
   <i type="int" name="NGZ">   480</i>
   <i type="int" name="NGXF">   192</i>
   <i type="int" name="NGYF">   192</i>
   <i type="int" name="NGZF">   960</i>
   <i type="logical" name="ADDGRID"> F  </i>
  </separator>
  <separator name="ionic" >
   <i type="int" name="NSW">     1</i>
   <i type="int" name="IBRION">    -1</i>
   <i type="int" name="MDALGO">     0</i>
   <i type="int" name="ISIF">     2</i>
   <i name="PSTRESS">      0.00000000</i>
   <i name="EDIFFG">      0.00000100</i>
   <i type="int" name="NFREE">     0</i>
   <i name="POTIM">      0.50000000</i>
   <i name="SMASS">     -3.00000000</i>
   <i name="SCALEE">      1.00000000</i>
  </separator>
  <separator name="ionic md" >
   <i name="TEBEG">      0.00010000</i>
   <i name="TEEND">      0.00010000</i>
   <i type="int" name="NBLOCK">     1</i>
   <i type="int" name="KBLOCK">     1</i>
   <i type="int" name="NPACO">   256</i>
   <i name="APACO">     16.00000000</i>
  </separator>
  <separator name="symmetry" >
   <i type="int" name="ISYM">     0</i>
   <i name="SYMPREC">      0.00001000</i>
  </separator>
  <separator name="dos" >
   <i type="int" name="LORBIT">     0</i>
   <v name="RWIGS">     -1.00000000</v>
   <i type="int" name="NEDOS">   301</i>
   <i name="EMIN">     10.00000000</i>
   <i name="EMAX">    -10.00000000</i>
   <i name="EFERMI">      0.00000000</i>
  </separator>
  <separator name="writing" >
   <i type="int" name="NWRITE">     2</i>
   <i type="logical" name="LWAVE"> F  </i>
   <i type="logical" name="LDOWNSAMPLE"> F  </i>
   <i type="logical" name="LCHARG"> F  </i>
   <i type="logical" name="LPARD"> F  </i>
   <i type="logical" name="LVTOT"> F  </i>
   <i type="logical" name="LVHAR"> F  </i>
   <i type="logical" name="LELF"> F  </i>
   <i type="logical" name="LOPTICS"> F  </i>
   <v name="STM">      0.00000000      0.00000000      0.00000000      0.00000000      0.00000000      0.00000000      0.00000000</v>
  </separator>
  <separator name="performance" >
   <i type="int" name="NPAR">     6</i>
   <i type="int" name="NSIM">     4</i>
   <i type="int" name="NBLK">    -1</i>
   <i type="logical" name="LPLANE"> T  </i>
   <i type="logical" name="LSCALAPACK"> F  </i>
   <i type="logical" name="LSCAAWARE"> F  </i>
   <i type="logical" name="LSCALU"> F  </i>
   <i type="logical" name="LASYNC"> F  </i>
   <i type="logical" name="LORBITALREAL"> F  </i>
  </separator>
  <separator name="miscellaneous" >
   <i type="int" name="IDIOT">     3</i>
   <i type="int" name="ISPECIAL">     0</i>
   <i type="logical" name="LMUSIC"> F  </i>
   <v name="POMASS">     12.01100000</v>
   <v name="DARWINR">      0.00000000</v>
   <v name="DARWINV">      1.00000000</v>
   <i type="logical" name="LCORR"> T  </i>
  </separator>
  <i type="logical" name="GGA_COMPAT"> T  </i>
  <i type="logical" name="LBERRY"> F  </i>
  <i type="int" name="ICORELEVEL">     0</i>
  <i type="logical" name="LDAU"> F  </i>
  <i type="int" name="I_CONSTRAINED_M">     0</i>
  <separator name="electronic exchange-correlation" >
   <i type="string" name="GGA">--</i>
   <i type="int" name="VOSKOWN">     0</i>
   <i type="logical" name="LHFCALC"> F  </i>
   <i type="string" name="PRECFOCK"></i>
   <i type="logical" name="LSYMGRAD"> F  </i>
   <i type="logical" name="LHFONE"> F  </i>
   <i type="logical" name="LRHFCALC"> F  </i>
   <i type="logical" name="LTHOMAS"> F  </i>
   <i type="logical" name="LMODELHF"> F  </i>
   <i name="ENCUT4O">     -1.00000000</i>
   <i type="int" name="EXXOEP">     0</i>
   <i type="int" name="FOURORBIT">     0</i>
   <i name="AEXX">      0.00000000</i>
   <i name="HFALPHA">      0.00000000</i>
   <i name="MCALPHA">      0.00000000</i>
   <i name="ALDAX">      1.00000000</i>
   <i name="AGGAX">      1.00000000</i>
   <i name="ALDAC">      1.00000000</i>
   <i name="AGGAC">      1.00000000</i>
   <i type="int" name="NKREDX">     1</i>
   <i type="int" name="NKREDY">     1</i>
   <i type="int" name="NKREDZ">     1</i>
   <i type="logical" name="SHIFTRED"> F  </i>
   <i type="logical" name="ODDONLY"> F  </i>
   <i type="logical" name="EVENONLY"> F  </i>
   <i type="int" name="LMAXFOCK">     0</i>
   <i type="int" name="NMAXFOCKAE">     0</i>
   <i type="logical" name="LFOCKAEDFT"> F  </i>
   <i name="HFSCREEN">      0.00000000</i>
   <i name="HFSCREENC">      0.00000000</i>
   <i type="int" name="NBANDSGWLOW">     0</i>
  </separator>
  <separator name="vdW DFT" >
   <i type="logical" name="LUSE_VDW"> F  </i>
   <i name="Zab_VDW">     -0.84910000</i>
   <i name="PARAM1">      0.12340000</i>
   <i name="PARAM2">      1.00000000</i>
   <i name="PARAM3">      0.00000000</i>
  </separator>
  <separator name="model GW" >
   <i type="int" name="MODEL_GW">     0</i>
   <i name="MODEL_EPS0">     78.80936621</i>
   <i name="MODEL_ALPHA">      1.00000000</i>
  </separator>
  <separator name="linear response parameters" >
   <i type="logical" name="LEPSILON"> F  </i>
   <i type="logical" name="LRPA"> F  </i>
   <i type="logical" name="LNABLA"> F  </i>
   <i type="logical" name="LVEL"> F  </i>
   <i type="int" name="KINTER">     0</i>
   <i name="CSHIFT">      0.10000000</i>
   <i name="OMEGAMAX">     -1.00000000</i>
   <i name="DEG_THRESHOLD">      0.00200000</i>
   <i name="RTIME">     -0.10000000</i>
   <i name="WPLASMAI">      0.00000000</i>
   <v name="DFIELD">      0.00000000      0.00000000      0.00000000</v>
   <v name="WPLASMA">      0.00000000      0.00000000      0.00000000      0.00000000      0.00000000      0.00000000      0.00000000      0.00000000      0.00000000</v>
  </separator>
  <separator name="orbital magnetization" >
   <i type="logical" name="NUCIND"> F  </i>
   <v name="MAGPOS">      0.00000000      0.00000000      0.00000000</v>
   <i type="logical" name="LNICSALL"> T  </i>
   <i type="logical" name="ORBITALMAG"> F  </i>
   <i type="logical" name="LMAGBLOCH"> F  </i>
   <i type="logical" name="LCHIMAG"> F  </i>
   <i type="logical" name="LGAUGE"> T  </i>
   <i type="int" name="MAGATOM">     0</i>
   <v name="MAGDIPOL">      0.00000000      0.00000000      0.00000000</v>
   <v name="AVECCONST">      0.00000000      0.00000000      0.00000000</v>
  </separator>
  <separator name="response functions" >
   <i type="logical" name="LADDER"> F  </i>
   <i type="logical" name="LRPAFORCE"> F  </i>
   <i type="logical" name="LFXC"> F  </i>
   <i type="logical" name="LHARTREE"> T  </i>
   <i type="int" name="IBSE">     0</i>
   <v type="int" name="KPOINT">    -1     0     0     0</v>
   <i type="logical" name="LTCTE"> F  </i>
   <i type="logical" name="LTETE"> F  </i>
   <i type="logical" name="LTRIPLET"> F  </i>
   <i type="logical" name="LFXCEPS"> F  </i>
   <i type="logical" name="LFXHEG"> F  </i>
   <i type="int" name="NATURALO">     2</i>
   <i type="logical" name="L2ORDER"> F  </i>
   <i type="logical" name="LMP2LT"> F  </i>
   <i type="logical" name="LUSEW"> F  </i>
   <i name="ENCUTGW">     -2.00000000</i>
   <i name="ENCUTGWSOFT">     -2.00000000</i>
   <i name="ENCUTLF">     -1.00000000</i>
   <i type="int" name="LMAXMP2">    -1</i>
   <i name="SCISSOR">      0.00000000</i>
   <i type="int" name="NOMEGA">     0</i>
   <i type="int" name="NOMEGAR">     0</i>
   <i type="int" name="NBANDSGW">    -1</i>
   <i type="int" name="NBANDSO">    -1</i>
   <i type="int" name="NBANDSV">    -1</i>
   <i type="int" name="NELM">   150</i>
   <i type="int" name="NELMHF">     1</i>
   <i type="int" name="DIM">     3</i>
   <i type="int" name="ANTIRES">     0</i>
   <i name="OMEGAMAX">    -30.00000000</i>
   <i name="OMEGAMIN">    -30.00000000</i>
   <i name="OMEGATL">   -200.00000000</i>
   <i type="int" name="OMEGAGRID">   140</i>
   <i name="CSHIFT">     -0.10000000</i>
   <i type="logical" name="SELFENERGY"> F  </i>
   <i type="logical" name="LSPECTRAL"> F  </i>
   <i type="logical" name="LSPECTRALGW"> F  </i>
   <i type="logical" name="LSINGLES"> F  </i>
   <i type="logical" name="LFERMIGW"> F  </i>
   <i type="logical" name="ODDONLYGW"> F  </i>
   <i type="logical" name="EVENONLYGW"> F  </i>
   <i type="int" name="NKREDLFX">     1</i>
   <i type="int" name="NKREDLFY">     1</i>
   <i type="int" name="NKREDLFZ">     1</i>
   <i type="int" name="MAXMEM">  2800</i>
   <i type="int" name="TELESCOPE">     0</i>
   <i type="int" name="TAUPAR">     1</i>
   <i type="int" name="OMEGAPAR">    -1</i>
   <i name="LAMBDA">      1.00000000</i>
  </separator>
  <separator name="External order field" >
   <i name="OFIELD_KAPPA">      0.00000000</i>
   <v name="OFIELD_K">      0.00000000      0.00000000      0.00000000</v>
   <i name="OFIELD_Q6_NEAR">      0.00000000</i>
   <i name="OFIELD_Q6_FAR">      0.00000000</i>
   <i name="OFIELD_A">      0.00000000</i>
  </separator>
 </parameters>
 <atominfo>
  <atoms>      32 </atoms>
  <types>       1 </types>
  <array name="atoms" >
   <dimension dim="1">ion</dimension>
   <field type="string">element</field>
   <field type="int">atomtype</field>
   <set>
    <rc><c>C </c><c>   1</c></rc>
    <rc><c>C </c><c>   1</c></rc>
    <rc><c>C </c><c>   1</c></rc>
    <rc><c>C </c><c>   1</c></rc>
    <rc><c>C </c><c>   1</c></rc>
    <rc><c>C </c><c>   1</c></rc>
    <rc><c>C </c><c>   1</c></rc>
    <rc><c>C </c><c>   1</c></rc>
    <rc><c>C </c><c>   1</c></rc>
    <rc><c>C </c><c>   1</c></rc>
    <rc><c>C </c><c>   1</c></rc>
    <rc><c>C </c><c>   1</c></rc>
    <rc><c>C </c><c>   1</c></rc>
    <rc><c>C </c><c>   1</c></rc>
    <rc><c>C </c><c>   1</c></rc>
    <rc><c>C </c><c>   1</c></rc>
    <rc><c>C </c><c>   1</c></rc>
    <rc><c>C </c><c>   1</c></rc>
    <rc><c>C </c><c>   1</c></rc>
    <rc><c>C </c><c>   1</c></rc>
    <rc><c>C </c><c>   1</c></rc>
    <rc><c>C </c><c>   1</c></rc>
    <rc><c>C </c><c>   1</c></rc>
    <rc><c>C </c><c>   1</c></rc>
    <rc><c>C </c><c>   1</c></rc>
    <rc><c>C </c><c>   1</c></rc>
    <rc><c>C </c><c>   1</c></rc>
    <rc><c>C </c><c>   1</c></rc>
    <rc><c>C </c><c>   1</c></rc>
    <rc><c>C </c><c>   1</c></rc>
    <rc><c>C </c><c>   1</c></rc>
    <rc><c>C </c><c>   1</c></rc>
   </set>
  </array>
  <array name="atomtypes" >
   <dimension dim="1">type</dimension>
   <field type="int">atomspertype</field>
   <field type="string">element</field>
   <field>mass</field>
   <field>valence</field>
   <field type="string">pseudopotential</field>
   <set>
    <rc><c>  32</c><c>C </c><c>     12.01100000</c><c>      4.00000000</c><c>  PAW_PBE C 08Apr2002                   </c></rc>
   </set>
  </array>
 </atominfo>
 <structure name="initialpos" >
  <crystal>
   <varray name="basis" >
    <v>       9.85432384      -0.00499347       0.00000044 </v>
    <v>       4.92948209       8.53130901       0.00000052 </v>
    <v>       0.00000222       0.00000176      49.98122779 </v>
   </varray>
   <i name="volume">   4203.16619791 </i>
   <varray name="rec_basis" >
    <v>       0.10144859      -0.05861809      -0.00000000 </v>
    <v>       0.00005938       0.11718100      -0.00000000 </v>
    <v>      -0.00000000      -0.00000000       0.02000751 </v>
   </varray>
  </crystal>
  <varray name="positions" >
   <v>       0.99991137       0.99990152       0.46800000 </v>
   <v>       0.08330021       0.08322602       0.46800000 </v>
   <v>       0.99991137       0.24990152       0.46800000 </v>
   <v>       0.08330021       0.33322603       0.46800000 </v>
   <v>       0.99991137       0.49990152       0.46800000 </v>
   <v>       0.08330021       0.58322603       0.46800000 </v>
   <v>       0.99991137       0.74990152       0.46800000 </v>
   <v>       0.08330022       0.83322602       0.46800000 </v>
   <v>       0.24991137       0.99990152       0.46800000 </v>
   <v>       0.33330022       0.08322602       0.46800000 </v>
   <v>       0.24991137       0.24990152       0.46800000 </v>
   <v>       0.33330022       0.33322602       0.46800000 </v>
   <v>       0.24991137       0.49990152       0.46800000 </v>
   <v>       0.33330022       0.58322602       0.46800000 </v>
   <v>       0.24991137       0.74990152       0.46800000 </v>
   <v>       0.33330022       0.83322602       0.46800000 </v>
   <v>       0.49991138       0.99990152       0.46800000 </v>
   <v>       0.58330022       0.08322602       0.46800000 </v>
   <v>       0.49991138       0.24990152       0.46800000 </v>
   <v>       0.58330022       0.33322602       0.46800000 </v>
   <v>       0.49991137       0.49990152       0.46800000 </v>
   <v>       0.58330022       0.58322602       0.46800000 </v>
   <v>       0.49991137       0.74990152       0.46800000 </v>
   <v>       0.58330022       0.83322602       0.46800000 </v>
   <v>       0.74991137       0.99990152       0.46800000 </v>
   <v>       0.83330021       0.08322603       0.46800000 </v>
   <v>       0.74991137       0.24990152       0.46800000 </v>
   <v>       0.83330021       0.33322603       0.46800000 </v>
   <v>       0.74991137       0.49990152       0.46800000 </v>
   <v>       0.83330021       0.58322602       0.46800000 </v>
   <v>       0.74991137       0.74990152       0.46800000 </v>
   <v>       0.83330022       0.83322602       0.46800000 </v>
  </varray>
  <varray name="velocities" >
   <v>       0.00000000       0.00000000       0.00000000 </v>
   <v>       0.00000000       0.00000000       0.00000000 </v>
   <v>       0.00000000       0.00000000       0.00000000 </v>
   <v>       0.00000000       0.00000000       0.00000000 </v>
   <v>       0.00000000       0.00000000       0.00000000 </v>
   <v>       0.00000000       0.00000000       0.00000000 </v>
   <v>       0.00000000       0.00000000       0.00000000 </v>
   <v>       0.00000000       0.00000000       0.00000000 </v>
   <v>       0.00000000       0.00000000       0.00000000 </v>
   <v>       0.00000000       0.00000000       0.00000000 </v>
   <v>       0.00000000       0.00000000       0.00000000 </v>
   <v>       0.00000000       0.00000000       0.00000000 </v>
   <v>       0.00000000       0.00000000       0.00000000 </v>
   <v>       0.00000000       0.00000000       0.00000000 </v>
   <v>       0.00000000       0.00000000       0.00000000 </v>
   <v>       0.00000000       0.00000000       0.00000000 </v>
   <v>       0.00000000       0.00000000       0.00000000 </v>
   <v>       0.00000000       0.00000000       0.00000000 </v>
   <v>       0.00000000       0.00000000       0.00000000 </v>
   <v>       0.00000000       0.00000000       0.00000000 </v>
   <v>       0.00000000       0.00000000       0.00000000 </v>
   <v>       0.00000000       0.00000000       0.00000000 </v>
   <v>       0.00000000       0.00000000       0.00000000 </v>
   <v>       0.00000000       0.00000000       0.00000000 </v>
   <v>       0.00000000       0.00000000       0.00000000 </v>
   <v>       0.00000000       0.00000000       0.00000000 </v>
   <v>       0.00000000       0.00000000       0.00000000 </v>
   <v>       0.00000000       0.00000000       0.00000000 </v>
   <v>       0.00000000       0.00000000       0.00000000 </v>
   <v>       0.00000000       0.00000000       0.00000000 </v>
   <v>       0.00000000       0.00000000       0.00000000 </v>
   <v>       0.00000000       0.00000000       0.00000000 </v>
  </varray>
 </structure>
 <calculation>
  <scstep>
   <time name="dav">  108.51  108.88</time>
   <time name="total">  109.79  110.23</time>
   <energy>
    <i name="alphaZ">     20.01306473 </i>
    <i name="ewald">  64807.06088596 </i>
    <i name="hartreedc"> -68027.44030135 </i>
    <i name="XCdc">    427.29893117 </i>
    <i name="pawpsdc">   3468.60153240 </i>
    <i name="pawaedc">  -3486.53919659 </i>
    <i name="eentropy">      0.00000000 </i>
    <i name="bandstr">   -497.53199987 </i>
    <i name="atom">   4708.95331268 </i>
    <i name="e_fr_energy">   1420.41622912 </i>
    <i name="e_wo_entrp">   1420.41622912 </i>
    <i name="e_0_energy">   1420.41622912 </i>
   </energy>
  </scstep>
  <scstep>
   <time name="dav">  152.92  153.30</time>
   <time name="total">  152.93  153.31</time>
   <energy>
    <i name="e_fr_energy">    121.40147486 </i>
    <i name="e_wo_entrp">    121.40147486 </i>
    <i name="e_0_energy">    121.40147486 </i>
   </energy>
  </scstep>
  <scstep>
   <time name="dav">  125.61  125.92</time>
   <time name="total">  125.62  125.93</time>
   <energy>
    <i name="e_fr_energy">   -280.14052111 </i>
    <i name="e_wo_entrp">   -280.14052111 </i>
    <i name="e_0_energy">   -280.14052111 </i>
   </energy>
  </scstep>
  <scstep>
   <time name="dav">  126.64  126.95</time>
   <time name="total">  126.65  126.97</time>
   <energy>
    <i name="e_fr_energy">   -302.47161001 </i>
    <i name="e_wo_entrp">   -302.47161001 </i>
    <i name="e_0_energy">   -302.47161001 </i>
   </energy>
  </scstep>
  <scstep>
   <time name="dav">  129.33  129.64</time>
   <time name="total">  135.81  136.14</time>
   <energy>
    <i name="e_fr_energy">   -302.93491768 </i>
    <i name="e_wo_entrp">   -302.93491768 </i>
    <i name="e_0_energy">   -302.93491768 </i>
   </energy>
  </scstep>
  <scstep>
   <time name="dav">  106.91  107.17</time>
   <time name="total">  114.59  114.88</time>
   <energy>
    <i name="e_fr_energy">   -208.81579680 </i>
    <i name="e_wo_entrp">   -208.81579680 </i>
    <i name="e_0_energy">   -208.81579680 </i>
   </energy>
  </scstep>
  <scstep>
   <time name="dav">  117.84  118.13</time>
   <time name="total">  125.51  125.83</time>
   <energy>
    <i name="e_fr_energy">   -232.44556281 </i>
    <i name="e_wo_entrp">   -232.44556281 </i>
    <i name="e_0_energy">   -232.44556281 </i>
   </energy>
  </scstep>
  <scstep>
   <time name="dav">  112.22  112.49</time>
   <time name="total">  119.88  120.17</time>
   <energy>
    <i name="e_fr_energy">   -247.26023121 </i>
    <i name="e_wo_entrp">   -247.26023121 </i>
    <i name="e_0_energy">   -247.26023121 </i>
   </energy>
  </scstep>
  <scstep>
   <time name="dav">  108.47  108.73</time>
   <time name="total">  116.01  116.30</time>
   <energy>
    <i name="e_fr_energy">   -257.79054760 </i>
    <i name="e_wo_entrp">   -257.79054760 </i>
    <i name="e_0_energy">   -257.79054760 </i>
   </energy>
  </scstep>
  <scstep>
   <time name="dav">  103.25  103.51</time>
   <time name="total">  110.78  111.06</time>
   <energy>
    <i name="e_fr_energy">   -270.19907912 </i>
    <i name="e_wo_entrp">   -270.19907912 </i>
    <i name="e_0_energy">   -270.19907912 </i>
   </energy>
  </scstep>
  <scstep>
   <time name="dav">  104.93  105.19</time>
   <time name="total">  112.35  112.63</time>
   <energy>
    <i name="e_fr_energy">   -280.01065114 </i>
    <i name="e_wo_entrp">   -280.01065114 </i>
    <i name="e_0_energy">   -280.01065114 </i>
   </energy>
  </scstep>
  <scstep>
   <time name="dav">  105.10  105.35</time>
   <time name="total">  112.53  112.81</time>
   <energy>
    <i name="e_fr_energy">   -289.21474737 </i>
    <i name="e_wo_entrp">   -289.21474737 </i>
    <i name="e_0_energy">   -289.21474737 </i>
   </energy>
  </scstep>
  <scstep>
   <time name="dav">  104.32  104.57</time>
   <time name="total">  111.75  112.03</time>
   <energy>
    <i name="e_fr_energy">   -292.09707263 </i>
    <i name="e_wo_entrp">   -292.09707263 </i>
    <i name="e_0_energy">   -292.09707263 </i>
   </energy>
  </scstep>
  <scstep>
   <time name="dav">  103.21  103.46</time>
   <time name="total">  110.64  110.92</time>
   <energy>
    <i name="e_fr_energy">   -293.36420428 </i>
    <i name="e_wo_entrp">   -293.36420428 </i>
    <i name="e_0_energy">   -293.36420428 </i>
   </energy>
  </scstep>
  <scstep>
   <time name="dav">  101.85  102.10</time>
   <time name="total">  109.28  109.55</time>
   <energy>
    <i name="e_fr_energy">   -293.70859631 </i>
    <i name="e_wo_entrp">   -293.70859631 </i>
    <i name="e_0_energy">   -293.70859631 </i>
   </energy>
  </scstep>
  <scstep>
   <time name="dav">  101.77  102.02</time>
   <time name="total">  109.23  109.50</time>
   <energy>
    <i name="e_fr_energy">   -293.08894105 </i>
    <i name="e_wo_entrp">   -293.08894105 </i>
    <i name="e_0_energy">   -293.08894105 </i>
   </energy>
  </scstep>
  <scstep>
   <time name="dav">  105.44  105.69</time>
   <time name="total">  112.89  113.17</time>
   <energy>
    <i name="e_fr_energy">   -294.20523114 </i>
    <i name="e_wo_entrp">   -294.20523114 </i>
    <i name="e_0_energy">   -294.20523114 </i>
   </energy>
  </scstep>
  <scstep>
   <time name="dav">  108.18  108.44</time>
   <time name="total">  115.64  115.93</time>
   <energy>
    <i name="e_fr_energy">   -295.00259794 </i>
    <i name="e_wo_entrp">   -295.00259794 </i>
    <i name="e_0_energy">   -295.00259794 </i>
   </energy>
  </scstep>
  <scstep>
   <time name="dav">  104.82  105.07</time>
   <time name="total">  112.30  112.58</time>
   <energy>
    <i name="e_fr_energy">   -295.21823039 </i>
    <i name="e_wo_entrp">   -295.21823039 </i>
    <i name="e_0_energy">   -295.21823039 </i>
   </energy>
  </scstep>
  <scstep>
   <time name="dav">  103.24  103.49</time>
   <time name="total">  110.71  110.99</time>
   <energy>
    <i name="e_fr_energy">   -295.33244309 </i>
    <i name="e_wo_entrp">   -295.33244309 </i>
    <i name="e_0_energy">   -295.33244309 </i>
   </energy>
  </scstep>
  <scstep>
   <time name="dav">  105.96  106.22</time>
   <time name="total">  113.53  113.81</time>
   <energy>
    <i name="e_fr_energy">   -295.40010677 </i>
    <i name="e_wo_entrp">   -295.40010677 </i>
    <i name="e_0_energy">   -295.40010677 </i>
   </energy>
  </scstep>
  <scstep>
   <time name="dav">  103.24  103.49</time>
   <time name="total">  110.79  111.07</time>
   <energy>
    <i name="e_fr_energy">   -295.45243922 </i>
    <i name="e_wo_entrp">   -295.45243922 </i>
    <i name="e_0_energy">   -295.45243922 </i>
   </energy>
  </scstep>
  <scstep>
   <time name="dav">  102.07  102.32</time>
   <time name="total">  109.62  109.90</time>
   <energy>
    <i name="e_fr_energy">   -295.46936724 </i>
    <i name="e_wo_entrp">   -295.46936724 </i>
    <i name="e_0_energy">   -295.46936724 </i>
   </energy>
  </scstep>
  <scstep>
   <time name="dav">  105.42  105.67</time>
   <time name="total">  113.03  113.31</time>
   <energy>
    <i name="e_fr_energy">   -295.47141766 </i>
    <i name="e_wo_entrp">   -295.47141766 </i>
    <i name="e_0_energy">   -295.47141766 </i>
   </energy>
  </scstep>
  <scstep>
   <time name="dav">  102.84  103.09</time>
   <time name="total">  110.37  110.64</time>
   <energy>
    <i name="e_fr_energy">   -295.47874430 </i>
    <i name="e_wo_entrp">   -295.47874430 </i>
    <i name="e_0_energy">   -295.47874430 </i>
   </energy>
  </scstep>
  <scstep>
   <time name="dav">  102.04  102.28</time>
   <time name="total">  109.51  109.78</time>
   <energy>
    <i name="e_fr_energy">   -295.48267513 </i>
    <i name="e_wo_entrp">   -295.48267513 </i>
    <i name="e_0_energy">   -295.48267513 </i>
   </energy>
  </scstep>
  <scstep>
   <time name="dav">  103.82  104.07</time>
   <time name="total">  111.32  111.60</time>
   <energy>
    <i name="e_fr_energy">   -295.48454811 </i>
    <i name="e_wo_entrp">   -295.48454811 </i>
    <i name="e_0_energy">   -295.48454811 </i>
   </energy>
  </scstep>
  <scstep>
   <time name="dav">  104.27  104.53</time>
   <time name="total">  111.80  112.09</time>
   <energy>
    <i name="e_fr_energy">   -295.48539767 </i>
    <i name="e_wo_entrp">   -295.48539767 </i>
    <i name="e_0_energy">   -295.48539767 </i>
   </energy>
  </scstep>
  <scstep>
   <time name="dav">  100.83  101.08</time>
   <time name="total">  108.34  108.61</time>
   <energy>
    <i name="e_fr_energy">   -295.48555479 </i>
    <i name="e_wo_entrp">   -295.48555479 </i>
    <i name="e_0_energy">   -295.48555479 </i>
   </energy>
  </scstep>
  <scstep>
   <time name="dav">   93.89   94.12</time>
   <time name="total">  101.43  101.69</time>
   <energy>
    <i name="e_fr_energy">   -295.48586320 </i>
    <i name="e_wo_entrp">   -295.48586320 </i>
    <i name="e_0_energy">   -295.48586320 </i>
   </energy>
  </scstep>
  <scstep>
   <time name="dav">   93.58   93.81</time>
   <time name="total">  101.09  101.34</time>
   <energy>
    <i name="e_fr_energy">   -295.48592902 </i>
    <i name="e_wo_entrp">   -295.48592902 </i>
    <i name="e_0_energy">   -295.48592902 </i>
   </energy>
  </scstep>
  <scstep>
   <time name="dav">   91.82   92.05</time>
   <time name="total">   99.32   99.58</time>
   <energy>
    <i name="e_fr_energy">   -295.48596753 </i>
    <i name="e_wo_entrp">   -295.48596753 </i>
    <i name="e_0_energy">   -295.48596753 </i>
   </energy>
  </scstep>
  <scstep>
   <time name="dav">   93.89   94.12</time>
   <time name="total">  101.42  101.69</time>
   <energy>
    <i name="e_fr_energy">   -295.48599780 </i>
    <i name="e_wo_entrp">   -295.48599780 </i>
    <i name="e_0_energy">   -295.48599780 </i>
   </energy>
  </scstep>
  <scstep>
   <time name="dav">   82.86   83.07</time>
   <time name="total">   90.39   90.62</time>
   <energy>
    <i name="e_fr_energy">   -295.48600431 </i>
    <i name="e_wo_entrp">   -295.48600431 </i>
    <i name="e_0_energy">   -295.48600431 </i>
   </energy>
  </scstep>
  <scstep>
   <time name="dav">   82.49   82.69</time>
   <time name="total">   90.03   90.26</time>
   <energy>
    <i name="e_fr_energy">   -295.48601081 </i>
    <i name="e_wo_entrp">   -295.48601081 </i>
    <i name="e_0_energy">   -295.48601081 </i>
   </energy>
  </scstep>
  <scstep>
   <time name="dav">   82.00   82.20</time>
   <time name="total">   89.48   89.70</time>
   <energy>
    <i name="e_fr_energy">   -295.48601352 </i>
    <i name="e_wo_entrp">   -295.48601352 </i>
    <i name="e_0_energy">   -295.48601352 </i>
   </energy>
  </scstep>
  <scstep>
   <time name="dav">   79.94   80.13</time>
   <time name="total">   87.47   87.69</time>
   <energy>
    <i name="e_fr_energy">   -295.48601468 </i>
    <i name="e_wo_entrp">   -295.48601468 </i>
    <i name="e_0_energy">   -295.48601468 </i>
   </energy>
  </scstep>
  <scstep>
   <time name="dav">   81.09   81.28</time>
   <time name="total">   88.63   88.85</time>
   <energy>
    <i name="e_fr_energy">   -295.48601585 </i>
    <i name="e_wo_entrp">   -295.48601585 </i>
    <i name="e_0_energy">   -295.48601585 </i>
   </energy>
  </scstep>
  <scstep>
   <time name="dav">   81.94   82.14</time>
   <time name="total">   89.49   89.72</time>
   <energy>
    <i name="e_fr_energy">   -295.48601622 </i>
    <i name="e_wo_entrp">   -295.48601622 </i>
    <i name="e_0_energy">   -295.48601622 </i>
   </energy>
  </scstep>
  <scstep>
   <time name="dav">   79.99   80.18</time>
   <time name="total">   87.54   87.75</time>
   <energy>
    <i name="e_fr_energy">   -295.48601666 </i>
    <i name="e_wo_entrp">   -295.48601666 </i>
    <i name="e_0_energy">   -295.48601666 </i>
   </energy>
  </scstep>
  <scstep>
   <time name="dav">   79.88   80.07</time>
   <time name="total">   87.42   87.66</time>
   <energy>
    <i name="e_fr_energy">   -295.48601678 </i>
    <i name="e_wo_entrp">   -295.48601678 </i>
    <i name="e_0_energy">   -295.48601678 </i>
   </energy>
  </scstep>
  <scstep>
   <time name="dav">   84.67   84.88</time>
   <time name="total">   85.84   86.06</time>
   <energy>
    <i name="alphaZ">     20.01306473 </i>
    <i name="ewald">  64807.06088596 </i>
    <i name="hartreedc"> -68613.59699765 </i>
    <i name="XCdc">    441.01165415 </i>
    <i name="pawpsdc">  13474.81396477 </i>
    <i name="pawaedc"> -13496.55340422 </i>
    <i name="eentropy">      0.00000000 </i>
    <i name="bandstr">  -1637.18849727 </i>
    <i name="atom">   4708.95331268 </i>
    <i name="e_fr_energy">   -295.48601686 </i>
    <i name="e_wo_entrp">   -295.48601686 </i>
    <i name="e_0_energy">   -295.48601686 </i>
   </energy>
  </scstep>
  <structure>
   <crystal>
    <varray name="basis" >
     <v>       9.85432384      -0.00499347       0.00000044 </v>
     <v>       4.92948209       8.53130901       0.00000052 </v>
     <v>       0.00000222       0.00000176      49.98122779 </v>
    </varray>
    <i name="volume">   4203.16619791 </i>
    <varray name="rec_basis" >
     <v>       0.10144859      -0.05861809      -0.00000000 </v>
     <v>       0.00005938       0.11718100      -0.00000000 </v>
     <v>      -0.00000000      -0.00000000       0.02000751 </v>
    </varray>
   </crystal>
   <varray name="positions" >
    <v>       0.99991137       0.99990152       0.46800000 </v>
    <v>       0.08330021       0.08322602       0.46800000 </v>
    <v>       0.99991137       0.24990152       0.46800000 </v>
    <v>       0.08330021       0.33322603       0.46800000 </v>
    <v>       0.99991137       0.49990152       0.46800000 </v>
    <v>       0.08330021       0.58322603       0.46800000 </v>
    <v>       0.99991137       0.74990152       0.46800000 </v>
    <v>       0.08330022       0.83322602       0.46800000 </v>
    <v>       0.24991137       0.99990152       0.46800000 </v>
    <v>       0.33330022       0.08322602       0.46800000 </v>
    <v>       0.24991137       0.24990152       0.46800000 </v>
    <v>       0.33330022       0.33322602       0.46800000 </v>
    <v>       0.24991137       0.49990152       0.46800000 </v>
    <v>       0.33330022       0.58322602       0.46800000 </v>
    <v>       0.24991137       0.74990152       0.46800000 </v>
    <v>       0.33330022       0.83322602       0.46800000 </v>
    <v>       0.49991138       0.99990152       0.46800000 </v>
    <v>       0.58330022       0.08322602       0.46800000 </v>
    <v>       0.49991138       0.24990152       0.46800000 </v>
    <v>       0.58330022       0.33322602       0.46800000 </v>
    <v>       0.49991137       0.49990152       0.46800000 </v>
    <v>       0.58330022       0.58322602       0.46800000 </v>
    <v>       0.49991137       0.74990152       0.46800000 </v>
    <v>       0.58330022       0.83322602       0.46800000 </v>
    <v>       0.74991137       0.99990152       0.46800000 </v>
    <v>       0.83330021       0.08322603       0.46800000 </v>
    <v>       0.74991137       0.24990152       0.46800000 </v>
    <v>       0.83330021       0.33322603       0.46800000 </v>
    <v>       0.74991137       0.49990152       0.46800000 </v>
    <v>       0.83330021       0.58322602       0.46800000 </v>
    <v>       0.74991137       0.74990152       0.46800000 </v>
    <v>       0.83330022       0.83322602       0.46800000 </v>
   </varray>
  </structure>
  <varray name="forces" >
   <v>       0.02464044      -0.00372428       0.00000001 </v>
   <v>      -0.02463869       0.00372448      -0.00000000 </v>
   <v>       0.02463893      -0.00372389       0.00000001 </v>
   <v>      -0.02463836       0.00372415       0.00000000 </v>
   <v>       0.02463861      -0.00372559       0.00000002 </v>
   <v>      -0.02463892       0.00372532      -0.00000001 </v>
   <v>       0.02464001      -0.00372608       0.00000000 </v>
   <v>      -0.02464037       0.00372497      -0.00000001 </v>
   <v>       0.02463884      -0.00372522      -0.00000000 </v>
   <v>      -0.02463850       0.00372452      -0.00000000 </v>
   <v>       0.02463859      -0.00372416       0.00000002 </v>
   <v>      -0.02463923       0.00372433      -0.00000001 </v>
   <v>       0.02463898      -0.00372488       0.00000001 </v>
   <v>      -0.02463971       0.00372445      -0.00000001 </v>
   <v>       0.02463997      -0.00372492       0.00000000 </v>
   <v>      -0.02463866       0.00372575      -0.00000000 </v>
   <v>       0.02463741      -0.00372445       0.00000001 </v>
   <v>      -0.02463901       0.00372351      -0.00000001 </v>
   <v>       0.02463915      -0.00372339       0.00000002 </v>
   <v>      -0.02463978       0.00372402      -0.00000001 </v>
   <v>       0.02463935      -0.00372463       0.00000001 </v>
   <v>      -0.02463895       0.00372517      -0.00000002 </v>
   <v>       0.02463813      -0.00372518       0.00000001 </v>
   <v>      -0.02463781       0.00372583      -0.00000000 </v>
   <v>       0.02463908      -0.00372360      -0.00000001 </v>
   <v>      -0.02463967       0.00372329       0.00000000 </v>
   <v>       0.02463945      -0.00372311       0.00000001 </v>
   <v>      -0.02463877       0.00372393      -0.00000001 </v>
   <v>       0.02463905      -0.00372509       0.00000001 </v>
   <v>      -0.02463833       0.00372600      -0.00000001 </v>
   <v>       0.02463787      -0.00372656       0.00000001 </v>
   <v>      -0.02463911       0.00372531      -0.00000002 </v>
  </varray>
  <varray name="stress" >
   <v>      -0.02714190       0.03477988       0.00000819 </v>
   <v>       0.03477984      -0.01750261       0.00000649 </v>
   <v>       0.00000819       0.00000650      -0.07295532 </v>
  </varray>
  <energy>
   <i name="e_fr_energy">   -298.14616361 </i>
   <i name="e_wo_entrp">   -298.14616361 </i>
   <i name="e_0_energy">      0.00000000 </i>
  </energy>
  <time name="totalsc"> 4641.79 4653.62</time>
  <eigenvalues>
   <array>
    <dimension dim="1">band</dimension>
    <dimension dim="2">kpoint</dimension>
    <dimension dim="3">spin</dimension>
    <field>eigene</field>
    <field>occ</field>
    <set>
     <set comment="spin 1">
      <set comment="kpoint 1">
       <r>  -23.1777    1.0000 </r>
       <r>  -21.7106    1.0000 </r>
       <r>  -21.7106    1.0000 </r>
       <r>  -21.7101    1.0000 </r>
       <r>  -21.7101    1.0000 </r>
       <r>  -21.7099    1.0000 </r>
       <r>  -21.7099    1.0000 </r>
       <r>  -18.8881    1.0000 </r>
       <r>  -18.8881    1.0000 </r>
       <r>  -18.8874    1.0000 </r>
       <r>  -18.8874    1.0000 </r>
       <r>  -18.8861    1.0000 </r>
       <r>  -18.8861    1.0000 </r>
       <r>  -17.9247    1.0000 </r>
       <r>  -17.9241    1.0000 </r>
       <r>  -17.9238    1.0000 </r>
       <r>  -16.8935    1.0000 </r>
       <r>  -16.8893    1.0000 </r>
       <r>  -16.8869    1.0000 </r>
       <r>  -14.1747    1.0000 </r>
       <r>  -14.1747    1.0000 </r>
       <r>  -14.1735    1.0000 </r>
       <r>  -14.1735    1.0000 </r>
       <r>  -14.1714    1.0000 </r>
       <r>  -14.1714    1.0000 </r>
       <r>  -12.6068    1.0000 </r>
       <r>  -12.6068    1.0000 </r>
       <r>  -12.6032    1.0000 </r>
       <r>  -12.6032    1.0000 </r>
       <r>  -12.6011    1.0000 </r>
       <r>  -12.6011    1.0000 </r>
       <r>  -11.2781    1.0000 </r>
       <r>  -11.0736    1.0000 </r>
       <r>  -11.0736    1.0000 </r>
       <r>  -11.0680    1.0000 </r>
       <r>  -11.0680    1.0000 </r>
       <r>  -11.0647    1.0000 </r>
       <r>  -11.0647    1.0000 </r>
       <r>  -10.0641    1.0000 </r>
       <r>  -10.0603    1.0000 </r>
       <r>  -10.0538    1.0000 </r>
       <r>   -9.5470    1.0000 </r>
       <r>   -9.5470    1.0000 </r>
       <r>   -9.5469    1.0000 </r>
       <r>   -9.5469    1.0000 </r>
       <r>   -9.5469    1.0000 </r>
       <r>   -9.5469    1.0000 </r>
       <r>   -8.6936    1.0000 </r>
       <r>   -8.6936    1.0000 </r>
       <r>   -8.6894    1.0000 </r>
       <r>   -8.6894    1.0000 </r>
       <r>   -8.6824    1.0000 </r>
       <r>   -8.6824    1.0000 </r>
       <r>   -6.6811    1.0000 </r>
       <r>   -6.6647    1.0000 </r>
       <r>   -6.3878    1.0000 </r>
       <r>   -6.3878    1.0000 </r>
       <r>   -6.3876    1.0000 </r>
       <r>   -6.3876    1.0000 </r>
       <r>   -6.3875    1.0000 </r>
       <r>   -6.3875    1.0000 </r>
       <r>   -6.0098    1.0000 </r>
       <r>   -6.0089    1.0000 </r>
       <r>   -6.0072    1.0000 </r>
       <r>   -1.9680    0.0000 </r>
       <r>   -1.9620    0.0000 </r>
       <r>   -1.9584    0.0000 </r>
       <r>   -0.8237    0.0000 </r>
       <r>   -0.8237    0.0000 </r>
       <r>   -0.8224    0.0000 </r>
       <r>   -0.8224    0.0000 </r>
       <r>   -0.8200    0.0000 </r>
       <r>   -0.8200    0.0000 </r>
       <r>   -0.3780    0.0000 </r>
       <r>    0.3947    0.0000 </r>
       <r>    0.6049    0.0000 </r>
       <r>    0.6916    0.0000 </r>
       <r>    0.7664    0.0000 </r>
       <r>    0.9638    0.0000 </r>
       <r>    1.0847    0.0000 </r>
       <r>    1.3855    0.0000 </r>
       <r>    1.5386    0.0000 </r>
       <r>    1.6269    0.0000 </r>
       <r>    1.6269    0.0000 </r>
       <r>    1.6275    0.0000 </r>
       <r>    1.6275    0.0000 </r>
       <r>    1.6278    0.0000 </r>
       <r>    1.6278    0.0000 </r>
       <r>    1.9585    0.0000 </r>
       <r>    2.1168    0.0000 </r>
       <r>    2.4146    0.0000 </r>
       <r>    2.4146    0.0000 </r>
       <r>    2.4150    0.0000 </r>
       <r>    2.4150    0.0000 </r>
       <r>    2.4153    0.0000 </r>
       <r>    2.4153    0.0000 </r>
       <r>    2.6433    0.0000 </r>
       <r>    2.6695    0.0000 </r>
       <r>    2.6696    0.0000 </r>
       <r>    2.6701    0.0000 </r>
       <r>    2.6701    0.0000 </r>
       <r>    2.6704    0.0000 </r>
      </set>
      <set comment="kpoint 2">
       <r>  -23.1186    1.0000 </r>
       <r>  -22.2358    1.0000 </r>
       <r>  -21.9431    1.0000 </r>
       <r>  -21.9429    1.0000 </r>
       <r>  -21.3623    1.0000 </r>
       <r>  -21.3619    1.0000 </r>
       <r>  -21.0741    1.0000 </r>
       <r>  -19.6578    1.0000 </r>
       <r>  -19.6571    1.0000 </r>
       <r>  -18.8326    1.0000 </r>
       <r>  -18.8324    1.0000 </r>
       <r>  -18.5823    1.0000 </r>
       <r>  -18.1134    1.0000 </r>
       <r>  -18.1129    1.0000 </r>
       <r>  -18.0414    1.0000 </r>
       <r>  -18.0407    1.0000 </r>
       <r>  -16.6025    1.0000 </r>
       <r>  -16.6003    1.0000 </r>
       <r>  -16.1479    1.0000 </r>
       <r>  -15.0003    1.0000 </r>
       <r>  -15.0002    1.0000 </r>
       <r>  -14.5789    1.0000 </r>
       <r>  -14.5768    1.0000 </r>
       <r>  -13.5216    1.0000 </r>
       <r>  -13.5196    1.0000 </r>
       <r>  -13.1291    1.0000 </r>
       <r>  -13.1281    1.0000 </r>
       <r>  -12.4002    1.0000 </r>
       <r>  -12.1876    1.0000 </r>
       <r>  -12.1850    1.0000 </r>
       <r>  -11.7676    1.0000 </r>
       <r>  -11.7646    1.0000 </r>
       <r>  -11.7259    1.0000 </r>
       <r>  -11.7228    1.0000 </r>
       <r>  -11.2074    1.0000 </r>
       <r>  -10.4297    1.0000 </r>
       <r>  -10.4265    1.0000 </r>
       <r>  -10.2461    1.0000 </r>
       <r>  -10.2423    1.0000 </r>
       <r>  -10.1603    1.0000 </r>
       <r>   -9.9950    1.0000 </r>
       <r>   -9.8175    1.0000 </r>
       <r>   -9.8174    1.0000 </r>
       <r>   -9.7818    1.0000 </r>
       <r>   -9.1503    1.0000 </r>
       <r>   -9.1450    1.0000 </r>
       <r>   -9.1450    1.0000 </r>
       <r>   -9.1211    1.0000 </r>
       <r>   -9.1171    1.0000 </r>
       <r>   -8.8178    1.0000 </r>
       <r>   -8.6117    1.0000 </r>
       <r>   -8.6079    1.0000 </r>
       <r>   -8.1593    1.0000 </r>
       <r>   -7.2202    1.0000 </r>
       <r>   -7.2202    1.0000 </r>
       <r>   -6.9230    1.0000 </r>
       <r>   -6.7932    1.0000 </r>
       <r>   -6.3600    1.0000 </r>
       <r>   -6.3564    1.0000 </r>
       <r>   -6.3562    1.0000 </r>
       <r>   -6.0517    1.0000 </r>
       <r>   -6.0509    1.0000 </r>
       <r>   -5.5232    1.0000 </r>
       <r>   -5.5230    1.0000 </r>
       <r>   -1.8564    0.0000 </r>
       <r>   -1.8530    0.0000 </r>
       <r>   -1.7853    0.0000 </r>
       <r>   -1.7843    0.0000 </r>
       <r>   -1.5230    0.0000 </r>
       <r>   -0.9361    0.0000 </r>
       <r>   -0.9349    0.0000 </r>
       <r>   -0.2977    0.0000 </r>
       <r>    0.1553    0.0000 </r>
       <r>    0.1570    0.0000 </r>
       <r>    0.4762    0.0000 </r>
       <r>    0.6875    0.0000 </r>
       <r>    0.7741    0.0000 </r>
       <r>    0.8490    0.0000 </r>
       <r>    0.9062    0.0000 </r>
       <r>    1.0462    0.0000 </r>
       <r>    1.1672    0.0000 </r>
       <r>    1.3079    0.0000 </r>
       <r>    1.3081    0.0000 </r>
       <r>    1.4678    0.0000 </r>
       <r>    1.6209    0.0000 </r>
       <r>    1.6954    0.0000 </r>
       <r>    1.9263    0.0000 </r>
       <r>    2.0113    0.0000 </r>
       <r>    2.0407    0.0000 </r>
       <r>    2.0868    0.0000 </r>
       <r>    2.0997    0.0000 </r>
       <r>    2.0998    0.0000 </r>
       <r>    2.1076    0.0000 </r>
       <r>    2.1080    0.0000 </r>
       <r>    2.1989    0.0000 </r>
       <r>    2.2390    0.0000 </r>
       <r>    2.2816    0.0000 </r>
       <r>    2.3398    0.0000 </r>
       <r>    2.3400    0.0000 </r>
       <r>    2.4035    0.0000 </r>
       <r>    2.4241    0.0000 </r>
       <r>    2.4243    0.0000 </r>
      </set>
      <set comment="kpoint 3">
       <r>  -22.9413    1.0000 </r>
       <r>  -22.6466    1.0000 </r>
       <r>  -22.0598    1.0000 </r>
       <r>  -22.0598    1.0000 </r>
       <r>  -20.9018    1.0000 </r>
       <r>  -20.9013    1.0000 </r>
       <r>  -20.3319    1.0000 </r>
       <r>  -20.3313    1.0000 </r>
       <r>  -20.3308    1.0000 </r>
       <r>  -19.4900    1.0000 </r>
       <r>  -18.6743    1.0000 </r>
       <r>  -18.6740    1.0000 </r>
       <r>  -18.4218    1.0000 </r>
       <r>  -18.4214    1.0000 </r>
       <r>  -17.1968    1.0000 </r>
       <r>  -17.1962    1.0000 </r>
       <r>  -16.0068    1.0000 </r>
       <r>  -16.0045    1.0000 </r>
       <r>  -15.8761    1.0000 </r>
       <r>  -15.8757    1.0000 </r>
       <r>  -15.2972    1.0000 </r>
       <r>  -15.2950    1.0000 </r>
       <r>  -14.9796    1.0000 </r>
       <r>  -13.7144    1.0000 </r>
       <r>  -13.3578    1.0000 </r>
       <r>  -13.3575    1.0000 </r>
       <r>  -12.9461    1.0000 </r>
       <r>  -12.9436    1.0000 </r>
       <r>  -12.3561    1.0000 </r>
       <r>  -12.3533    1.0000 </r>
       <r>  -11.4440    1.0000 </r>
       <r>  -11.4408    1.0000 </r>
       <r>  -10.9958    1.0000 </r>
       <r>  -10.7906    1.0000 </r>
       <r>  -10.7871    1.0000 </r>
       <r>  -10.7444    1.0000 </r>
       <r>  -10.7408    1.0000 </r>
       <r>  -10.6455    1.0000 </r>
       <r>   -9.9535    1.0000 </r>
       <r>   -9.9534    1.0000 </r>
       <r>   -9.9415    1.0000 </r>
       <r>   -9.9397    1.0000 </r>
       <r>   -9.8589    1.0000 </r>
       <r>   -9.8551    1.0000 </r>
       <r>   -9.8203    1.0000 </r>
       <r>   -9.5353    1.0000 </r>
       <r>   -8.7512    1.0000 </r>
       <r>   -8.7491    1.0000 </r>
       <r>   -8.6169    1.0000 </r>
       <r>   -8.6169    1.0000 </r>
       <r>   -8.5921    1.0000 </r>
       <r>   -7.9956    1.0000 </r>
       <r>   -7.9709    1.0000 </r>
       <r>   -7.9709    1.0000 </r>
       <r>   -7.6239    1.0000 </r>
       <r>   -7.5990    1.0000 </r>
       <r>   -7.1405    1.0000 </r>
       <r>   -7.1320    1.0000 </r>
       <r>   -6.2703    1.0000 </r>
       <r>   -6.2699    1.0000 </r>
       <r>   -6.1546    1.0000 </r>
       <r>   -6.1539    1.0000 </r>
       <r>   -4.7992    1.0000 </r>
       <r>   -4.7990    1.0000 </r>
       <r>   -2.5582    0.0000 </r>
       <r>   -2.5577    0.0000 </r>
       <r>   -1.5792    0.0000 </r>
       <r>   -1.5763    0.0000 </r>
       <r>   -1.2296    0.0000 </r>
       <r>   -1.2274    0.0000 </r>
       <r>   -0.4801    0.0000 </r>
       <r>   -0.0568    0.0000 </r>
       <r>    0.3446    0.0000 </r>
       <r>    0.7206    0.0000 </r>
       <r>    0.8149    0.0000 </r>
       <r>    0.9352    0.0000 </r>
       <r>    1.0216    0.0000 </r>
       <r>    1.0965    0.0000 </r>
       <r>    1.1058    0.0000 </r>
       <r>    1.1077    0.0000 </r>
       <r>    1.1275    0.0000 </r>
       <r>    1.1483    0.0000 </r>
       <r>    1.1484    0.0000 </r>
       <r>    1.2934    0.0000 </r>
       <r>    1.3482    0.0000 </r>
       <r>    1.4144    0.0000 </r>
       <r>    1.4340    0.0000 </r>
       <r>    1.5092    0.0000 </r>
       <r>    1.7053    0.0000 </r>
       <r>    1.7147    0.0000 </r>
       <r>    1.8266    0.0000 </r>
       <r>    1.8678    0.0000 </r>
       <r>    1.9398    0.0000 </r>
       <r>    1.9399    0.0000 </r>
       <r>    2.0068    0.0000 </r>
       <r>    2.1261    0.0000 </r>
       <r>    2.1747    0.0000 </r>
       <r>    2.1759    0.0000 </r>
       <r>    2.2594    0.0000 </r>
       <r>    2.2595    0.0000 </r>
       <r>    2.2794    0.0000 </r>
       <r>    2.2874    0.0000 </r>
      </set>
      <set comment="kpoint 4">
       <r>  -23.1186    1.0000 </r>
       <r>  -22.2355    1.0000 </r>
       <r>  -21.9436    1.0000 </r>
       <r>  -21.9431    1.0000 </r>
       <r>  -21.3628    1.0000 </r>
       <r>  -21.3617    1.0000 </r>
       <r>  -21.0734    1.0000 </r>
       <r>  -19.6579    1.0000 </r>
       <r>  -19.6560    1.0000 </r>
       <r>  -18.8340    1.0000 </r>
       <r>  -18.8335    1.0000 </r>
       <r>  -18.5812    1.0000 </r>
       <r>  -18.1145    1.0000 </r>
       <r>  -18.1132    1.0000 </r>
       <r>  -18.0413    1.0000 </r>
       <r>  -18.0392    1.0000 </r>
       <r>  -16.6062    1.0000 </r>
       <r>  -16.6000    1.0000 </r>
       <r>  -16.1444    1.0000 </r>
       <r>  -14.9980    1.0000 </r>
       <r>  -14.9977    1.0000 </r>
       <r>  -14.5820    1.0000 </r>
       <r>  -14.5766    1.0000 </r>
       <r>  -13.5241    1.0000 </r>
       <r>  -13.5185    1.0000 </r>
       <r>  -13.1334    1.0000 </r>
       <r>  -13.1307    1.0000 </r>
       <r>  -12.3953    1.0000 </r>
       <r>  -12.1867    1.0000 </r>
       <r>  -12.1800    1.0000 </r>
       <r>  -11.7698    1.0000 </r>
       <r>  -11.7618    1.0000 </r>
       <r>  -11.7310    1.0000 </r>
       <r>  -11.7227    1.0000 </r>
       <r>  -11.2073    1.0000 </r>
       <r>  -10.4359    1.0000 </r>
       <r>  -10.4272    1.0000 </r>
       <r>  -10.2462    1.0000 </r>
       <r>  -10.2360    1.0000 </r>
       <r>  -10.1602    1.0000 </r>
       <r>  -10.0015    1.0000 </r>
       <r>   -9.8176    1.0000 </r>
       <r>   -9.8175    1.0000 </r>
       <r>   -9.7755    1.0000 </r>
       <r>   -9.1571    1.0000 </r>
       <r>   -9.1451    1.0000 </r>
       <r>   -9.1449    1.0000 </r>
       <r>   -9.1213    1.0000 </r>
       <r>   -9.1105    1.0000 </r>
       <r>   -8.8177    1.0000 </r>
       <r>   -8.6109    1.0000 </r>
       <r>   -8.6006    1.0000 </r>
       <r>   -8.1666    1.0000 </r>
       <r>   -7.2202    1.0000 </r>
       <r>   -7.2201    1.0000 </r>
       <r>   -6.9149    1.0000 </r>
       <r>   -6.8014    1.0000 </r>
       <r>   -6.3612    1.0000 </r>
       <r>   -6.3564    1.0000 </r>
       <r>   -6.3558    1.0000 </r>
       <r>   -6.0517    1.0000 </r>
       <r>   -6.0494    1.0000 </r>
       <r>   -5.5239    1.0000 </r>
       <r>   -5.5233    1.0000 </r>
       <r>   -1.8623    0.0000 </r>
       <r>   -1.8531    0.0000 </r>
       <r>   -1.7841    0.0000 </r>
       <r>   -1.7814    0.0000 </r>
       <r>   -1.5175    0.0000 </r>
       <r>   -0.9395    0.0000 </r>
       <r>   -0.9363    0.0000 </r>
       <r>   -0.2977    0.0000 </r>
       <r>    0.1543    0.0000 </r>
       <r>    0.1589    0.0000 </r>
       <r>    0.4762    0.0000 </r>
       <r>    0.6875    0.0000 </r>
       <r>    0.7741    0.0000 </r>
       <r>    0.8490    0.0000 </r>
       <r>    0.9066    0.0000 </r>
       <r>    1.0463    0.0000 </r>
       <r>    1.1672    0.0000 </r>
       <r>    1.3074    0.0000 </r>
       <r>    1.3079    0.0000 </r>
       <r>    1.4678    0.0000 </r>
       <r>    1.6209    0.0000 </r>
       <r>    1.6957    0.0000 </r>
       <r>    1.9266    0.0000 </r>
       <r>    2.0116    0.0000 </r>
       <r>    2.0408    0.0000 </r>
       <r>    2.0871    0.0000 </r>
       <r>    2.0992    0.0000 </r>
       <r>    2.0996    0.0000 </r>
       <r>    2.1071    0.0000 </r>
       <r>    2.1082    0.0000 </r>
       <r>    2.1911    0.0000 </r>
       <r>    2.1990    0.0000 </r>
       <r>    2.2819    0.0000 </r>
       <r>    2.3393    0.0000 </r>
       <r>    2.3398    0.0000 </r>
       <r>    2.4039    0.0000 </r>
       <r>    2.4236    0.0000 </r>
       <r>    2.4241    0.0000 </r>
      </set>
      <set comment="kpoint 5">
       <r>  -23.1185    1.0000 </r>
       <r>  -22.2353    1.0000 </r>
       <r>  -21.9437    1.0000 </r>
       <r>  -21.9434    1.0000 </r>
       <r>  -21.3627    1.0000 </r>
       <r>  -21.3620    1.0000 </r>
       <r>  -21.0730    1.0000 </r>
       <r>  -19.6573    1.0000 </r>
       <r>  -19.6561    1.0000 </r>
       <r>  -18.8346    1.0000 </r>
       <r>  -18.8343    1.0000 </r>
       <r>  -18.5805    1.0000 </r>
       <r>  -18.1146    1.0000 </r>
       <r>  -18.1138    1.0000 </r>
       <r>  -18.0404    1.0000 </r>
       <r>  -18.0391    1.0000 </r>
       <r>  -16.6060    1.0000 </r>
       <r>  -16.6022    1.0000 </r>
       <r>  -16.1423    1.0000 </r>
       <r>  -14.9966    1.0000 </r>
       <r>  -14.9963    1.0000 </r>
       <r>  -14.5818    1.0000 </r>
       <r>  -14.5784    1.0000 </r>
       <r>  -13.5234    1.0000 </r>
       <r>  -13.5199    1.0000 </r>
       <r>  -13.1350    1.0000 </r>
       <r>  -13.1333    1.0000 </r>
       <r>  -12.3925    1.0000 </r>
       <r>  -12.1837    1.0000 </r>
       <r>  -12.1795    1.0000 </r>
       <r>  -11.7681    1.0000 </r>
       <r>  -11.7630    1.0000 </r>
       <r>  -11.7309    1.0000 </r>
       <r>  -11.7257    1.0000 </r>
       <r>  -11.2073    1.0000 </r>
       <r>  -10.4363    1.0000 </r>
       <r>  -10.4309    1.0000 </r>
       <r>  -10.2424    1.0000 </r>
       <r>  -10.2360    1.0000 </r>
       <r>  -10.1602    1.0000 </r>
       <r>  -10.0053    1.0000 </r>
       <r>   -9.8176    1.0000 </r>
       <r>   -9.8176    1.0000 </r>
       <r>   -9.7718    1.0000 </r>
       <r>   -9.1611    1.0000 </r>
       <r>   -9.1450    1.0000 </r>
       <r>   -9.1449    1.0000 </r>
       <r>   -9.1174    1.0000 </r>
       <r>   -9.1106    1.0000 </r>
       <r>   -8.8177    1.0000 </r>
       <r>   -8.6066    1.0000 </r>
       <r>   -8.6001    1.0000 </r>
       <r>   -8.1710    1.0000 </r>
       <r>   -7.2201    1.0000 </r>
       <r>   -7.2201    1.0000 </r>
       <r>   -6.9096    1.0000 </r>
       <r>   -6.8068    1.0000 </r>
       <r>   -6.3618    1.0000 </r>
       <r>   -6.3561    1.0000 </r>
       <r>   -6.3558    1.0000 </r>
       <r>   -6.0509    1.0000 </r>
       <r>   -6.0494    1.0000 </r>
       <r>   -5.5241    1.0000 </r>
       <r>   -5.5237    1.0000 </r>
       <r>   -1.8623    0.0000 </r>
       <r>   -1.8565    0.0000 </r>
       <r>   -1.7824    0.0000 </r>
       <r>   -1.7807    0.0000 </r>
       <r>   -1.5143    0.0000 </r>
       <r>   -0.9403    0.0000 </r>
       <r>   -0.9383    0.0000 </r>
       <r>   -0.2977    0.0000 </r>
       <r>    0.1554    0.0000 </r>
       <r>    0.1583    0.0000 </r>
       <r>    0.4762    0.0000 </r>
       <r>    0.6875    0.0000 </r>
       <r>    0.7742    0.0000 </r>
       <r>    0.8490    0.0000 </r>
       <r>    0.9068    0.0000 </r>
       <r>    1.0463    0.0000 </r>
       <r>    1.1672    0.0000 </r>
       <r>    1.3073    0.0000 </r>
       <r>    1.3076    0.0000 </r>
       <r>    1.4679    0.0000 </r>
       <r>    1.6209    0.0000 </r>
       <r>    1.6959    0.0000 </r>
       <r>    1.9268    0.0000 </r>
       <r>    2.0118    0.0000 </r>
       <r>    2.0408    0.0000 </r>
       <r>    2.0873    0.0000 </r>
       <r>    2.0991    0.0000 </r>
       <r>    2.0994    0.0000 </r>
       <r>    2.1072    0.0000 </r>
       <r>    2.1079    0.0000 </r>
       <r>    2.1990    0.0000 </r>
       <r>    2.2821    0.0000 </r>
       <r>    2.3392    0.0000 </r>
       <r>    2.3395    0.0000 </r>
       <r>    2.4040    0.0000 </r>
       <r>    2.4235    0.0000 </r>
       <r>    2.4238    0.0000 </r>
       <r>    2.4994    0.0000 </r>
      </set>
      <set comment="kpoint 6">
       <r>  -23.0003    1.0000 </r>
       <r>  -22.4116    1.0000 </r>
       <r>  -22.4112    1.0000 </r>
       <r>  -21.5365    1.0000 </r>
       <r>  -21.5359    1.0000 </r>
       <r>  -20.6726    1.0000 </r>
       <r>  -20.6715    1.0000 </r>
       <r>  -20.3885    1.0000 </r>
       <r>  -19.5459    1.0000 </r>
       <r>  -19.5446    1.0000 </r>
       <r>  -18.9996    1.0000 </r>
       <r>  -18.9974    1.0000 </r>
       <r>  -17.9518    1.0000 </r>
       <r>  -17.9495    1.0000 </r>
       <r>  -17.7721    1.0000 </r>
       <r>  -17.2006    1.0000 </r>
       <r>  -16.7403    1.0000 </r>
       <r>  -15.6380    1.0000 </r>
       <r>  -15.6334    1.0000 </r>
       <r>  -15.5480    1.0000 </r>
       <r>  -15.5426    1.0000 </r>
       <r>  -15.5082    1.0000 </r>
       <r>  -14.1344    1.0000 </r>
       <r>  -14.1337    1.0000 </r>
       <r>  -13.8235    1.0000 </r>
       <r>  -13.0429    1.0000 </r>
       <r>  -13.0356    1.0000 </r>
       <r>  -12.5827    1.0000 </r>
       <r>  -12.4181    1.0000 </r>
       <r>  -12.4102    1.0000 </r>
       <r>  -11.1826    1.0000 </r>
       <r>  -11.1821    1.0000 </r>
       <r>  -11.1089    1.0000 </r>
       <r>  -11.1086    1.0000 </r>
       <r>  -11.1069    1.0000 </r>
       <r>  -11.0662    1.0000 </r>
       <r>  -10.8013    1.0000 </r>
       <r>  -10.3673    1.0000 </r>
       <r>  -10.3672    1.0000 </r>
       <r>  -10.1283    1.0000 </r>
       <r>  -10.1182    1.0000 </r>
       <r>   -9.5561    1.0000 </r>
       <r>   -9.5457    1.0000 </r>
       <r>   -9.3461    1.0000 </r>
       <r>   -9.3437    1.0000 </r>
       <r>   -9.3432    1.0000 </r>
       <r>   -9.3430    1.0000 </r>
       <r>   -9.2186    1.0000 </r>
       <r>   -9.2070    1.0000 </r>
       <r>   -8.3660    1.0000 </r>
       <r>   -8.3660    1.0000 </r>
       <r>   -8.0598    1.0000 </r>
       <r>   -8.0471    1.0000 </r>
       <r>   -8.0294    1.0000 </r>
       <r>   -7.3581    1.0000 </r>
       <r>   -7.1220    1.0000 </r>
       <r>   -7.1219    1.0000 </r>
       <r>   -7.0553    1.0000 </r>
       <r>   -6.6703    1.0000 </r>
       <r>   -6.6691    1.0000 </r>
       <r>   -5.7928    1.0000 </r>
       <r>   -5.5490    1.0000 </r>
       <r>   -5.5472    1.0000 </r>
       <r>   -4.6702    1.0000 </r>
       <r>   -2.6309    0.0000 </r>
       <r>   -2.0233    0.0000 </r>
       <r>   -1.8953    0.0000 </r>
       <r>   -1.8887    0.0000 </r>
       <r>   -1.0641    0.0000 </r>
       <r>   -1.0560    0.0000 </r>
       <r>   -0.1371    0.0000 </r>
       <r>   -0.1137    0.0000 </r>
       <r>   -0.1120    0.0000 </r>
       <r>    0.6392    0.0000 </r>
       <r>    0.6659    0.0000 </r>
       <r>    0.6663    0.0000 </r>
       <r>    0.8527    0.0000 </r>
       <r>    0.9392    0.0000 </r>
       <r>    1.0141    0.0000 </r>
       <r>    1.2111    0.0000 </r>
       <r>    1.2639    0.0000 </r>
       <r>    1.3321    0.0000 </r>
       <r>    1.4525    0.0000 </r>
       <r>    1.4530    0.0000 </r>
       <r>    1.4648    0.0000 </r>
       <r>    1.4702    0.0000 </r>
       <r>    1.6325    0.0000 </r>
       <r>    1.6785    0.0000 </r>
       <r>    1.6790    0.0000 </r>
       <r>    1.7639    0.0000 </r>
       <r>    1.7644    0.0000 </r>
       <r>    1.7856    0.0000 </r>
       <r>    1.8392    0.0000 </r>
       <r>    1.8397    0.0000 </r>
       <r>    1.8691    0.0000 </r>
       <r>    1.8697    0.0000 </r>
       <r>    2.0347    0.0000 </r>
       <r>    2.0352    0.0000 </r>
       <r>    2.1563    0.0000 </r>
       <r>    2.1568    0.0000 </r>
       <r>    2.2052    0.0000 </r>
       <r>    2.3633    0.0000 </r>
      </set>
      <set comment="kpoint 7">
       <r>  -22.7644    1.0000 </r>
       <r>  -22.7643    1.0000 </r>
       <r>  -22.4699    1.0000 </r>
       <r>  -21.5939    1.0000 </r>
       <r>  -21.0172    1.0000 </r>
       <r>  -21.0167    1.0000 </r>
       <r>  -20.1612    1.0000 </r>
       <r>  -20.1605    1.0000 </r>
       <r>  -19.8798    1.0000 </r>
       <r>  -19.8797    1.0000 </r>
       <r>  -19.3235    1.0000 </r>
       <r>  -19.3230    1.0000 </r>
       <r>  -17.8040    1.0000 </r>
       <r>  -17.8037    1.0000 </r>
       <r>  -17.3166    1.0000 </r>
       <r>  -16.5596    1.0000 </r>
       <r>  -16.3357    1.0000 </r>
       <r>  -16.3202    1.0000 </r>
       <r>  -16.3178    1.0000 </r>
       <r>  -16.0328    1.0000 </r>
       <r>  -14.8578    1.0000 </r>
       <r>  -14.8555    1.0000 </r>
       <r>  -14.3283    1.0000 </r>
       <r>  -14.3281    1.0000 </r>
       <r>  -14.0633    1.0000 </r>
       <r>  -13.6220    1.0000 </r>
       <r>  -13.6197    1.0000 </r>
       <r>  -12.4844    1.0000 </r>
       <r>  -11.8060    1.0000 </r>
       <r>  -11.8032    1.0000 </r>
       <r>  -11.5722    1.0000 </r>
       <r>  -11.5690    1.0000 </r>
       <r>  -10.7898    1.0000 </r>
       <r>  -10.7852    1.0000 </r>
       <r>  -10.7852    1.0000 </r>
       <r>  -10.5641    1.0000 </r>
       <r>  -10.5605    1.0000 </r>
       <r>  -10.4364    1.0000 </r>
       <r>  -10.2671    1.0000 </r>
       <r>  -10.2635    1.0000 </r>
       <r>  -10.2444    1.0000 </r>
       <r>  -10.2409    1.0000 </r>
       <r>   -9.8857    1.0000 </r>
       <r>   -9.8857    1.0000 </r>
       <r>   -9.5419    1.0000 </r>
       <r>   -9.4093    1.0000 </r>
       <r>   -8.9385    1.0000 </r>
       <r>   -8.7435    1.0000 </r>
       <r>   -8.7435    1.0000 </r>
       <r>   -8.1606    1.0000 </r>
       <r>   -8.1581    1.0000 </r>
       <r>   -8.1031    1.0000 </r>
       <r>   -7.7972    1.0000 </r>
       <r>   -7.7972    1.0000 </r>
       <r>   -7.5138    1.0000 </r>
       <r>   -7.5138    1.0000 </r>
       <r>   -7.5059    1.0000 </r>
       <r>   -7.5034    1.0000 </r>
       <r>   -6.9333    1.0000 </r>
       <r>   -6.9330    1.0000 </r>
       <r>   -5.6273    1.0000 </r>
       <r>   -5.6265    1.0000 </r>
       <r>   -5.1465    1.0000 </r>
       <r>   -4.0847    1.0000 </r>
       <r>   -3.2126    0.0000 </r>
       <r>   -2.3463    0.0000 </r>
       <r>   -2.0118    0.0000 </r>
       <r>   -2.0089    0.0000 </r>
       <r>   -0.5573    0.0000 </r>
       <r>   -0.5549    0.0000 </r>
       <r>    0.1260    0.0000 </r>
       <r>    0.1261    0.0000 </r>
       <r>    0.1842    0.0000 </r>
       <r>    0.1842    0.0000 </r>
       <r>    0.5862    0.0000 </r>
       <r>    0.6904    0.0000 </r>
       <r>    0.6927    0.0000 </r>
       <r>    0.9649    0.0000 </r>
       <r>    0.9649    0.0000 </r>
       <r>    1.1830    0.0000 </r>
       <r>    1.1830    0.0000 </r>
       <r>    1.2691    0.0000 </r>
       <r>    1.2691    0.0000 </r>
       <r>    1.3441    0.0000 </r>
       <r>    1.3442    0.0000 </r>
       <r>    1.3719    0.0000 </r>
       <r>    1.5406    0.0000 </r>
       <r>    1.5406    0.0000 </r>
       <r>    1.5964    0.0000 </r>
       <r>    1.6617    0.0000 </r>
       <r>    1.6618    0.0000 </r>
       <r>    1.6819    0.0000 </r>
       <r>    1.7572    0.0000 </r>
       <r>    1.7903    0.0000 </r>
       <r>    1.9528    0.0000 </r>
       <r>    1.9616    0.0000 </r>
       <r>    1.9617    0.0000 </r>
       <r>    2.0744    0.0000 </r>
       <r>    2.1148    0.0000 </r>
       <r>    2.1149    0.0000 </r>
       <r>    2.3733    0.0000 </r>
       <r>    2.4358    0.0000 </r>
      </set>
      <set comment="kpoint 8">
       <r>  -23.0004    1.0000 </r>
       <r>  -22.4116    1.0000 </r>
       <r>  -22.4113    1.0000 </r>
       <r>  -21.5361    1.0000 </r>
       <r>  -21.5357    1.0000 </r>
       <r>  -20.6727    1.0000 </r>
       <r>  -20.6721    1.0000 </r>
       <r>  -20.3891    1.0000 </r>
       <r>  -19.5451    1.0000 </r>
       <r>  -19.5443    1.0000 </r>
       <r>  -18.9994    1.0000 </r>
       <r>  -18.9981    1.0000 </r>
       <r>  -17.9511    1.0000 </r>
       <r>  -17.9497    1.0000 </r>
       <r>  -17.7718    1.0000 </r>
       <r>  -17.2013    1.0000 </r>
       <r>  -16.7379    1.0000 </r>
       <r>  -15.6385    1.0000 </r>
       <r>  -15.6356    1.0000 </r>
       <r>  -15.5482    1.0000 </r>
       <r>  -15.5448    1.0000 </r>
       <r>  -15.5088    1.0000 </r>
       <r>  -14.1320    1.0000 </r>
       <r>  -14.1316    1.0000 </r>
       <r>  -13.8220    1.0000 </r>
       <r>  -13.0428    1.0000 </r>
       <r>  -13.0382    1.0000 </r>
       <r>  -12.5846    1.0000 </r>
       <r>  -12.4153    1.0000 </r>
       <r>  -12.4103    1.0000 </r>
       <r>  -11.1858    1.0000 </r>
       <r>  -11.1854    1.0000 </r>
       <r>  -11.1061    1.0000 </r>
       <r>  -11.1056    1.0000 </r>
       <r>  -11.1042    1.0000 </r>
       <r>  -11.0662    1.0000 </r>
       <r>  -10.8048    1.0000 </r>
       <r>  -10.3673    1.0000 </r>
       <r>  -10.3672    1.0000 </r>
       <r>  -10.1245    1.0000 </r>
       <r>  -10.1181    1.0000 </r>
       <r>   -9.5523    1.0000 </r>
       <r>   -9.5457    1.0000 </r>
       <r>   -9.3493    1.0000 </r>
       <r>   -9.3477    1.0000 </r>
       <r>   -9.3431    1.0000 </r>
       <r>   -9.3430    1.0000 </r>
       <r>   -9.2175    1.0000 </r>
       <r>   -9.2102    1.0000 </r>
       <r>   -8.3660    1.0000 </r>
       <r>   -8.3660    1.0000 </r>
       <r>   -8.0562    1.0000 </r>
       <r>   -8.0482    1.0000 </r>
       <r>   -8.0294    1.0000 </r>
       <r>   -7.3627    1.0000 </r>
       <r>   -7.1221    1.0000 </r>
       <r>   -7.1221    1.0000 </r>
       <r>   -7.0506    1.0000 </r>
       <r>   -6.6698    1.0000 </r>
       <r>   -6.6691    1.0000 </r>
       <r>   -5.7938    1.0000 </r>
       <r>   -5.5485    1.0000 </r>
       <r>   -5.5473    1.0000 </r>
       <r>   -4.6696    1.0000 </r>
       <r>   -2.6321    0.0000 </r>
       <r>   -2.0199    0.0000 </r>
       <r>   -1.8948    0.0000 </r>
       <r>   -1.8907    0.0000 </r>
       <r>   -1.0640    0.0000 </r>
       <r>   -1.0589    0.0000 </r>
       <r>   -0.1371    0.0000 </r>
       <r>   -0.1114    0.0000 </r>
       <r>   -0.1104    0.0000 </r>
       <r>    0.6392    0.0000 </r>
       <r>    0.6659    0.0000 </r>
       <r>    0.6662    0.0000 </r>
       <r>    0.8527    0.0000 </r>
       <r>    0.9391    0.0000 </r>
       <r>    1.0140    0.0000 </r>
       <r>    1.2110    0.0000 </r>
       <r>    1.2624    0.0000 </r>
       <r>    1.3320    0.0000 </r>
       <r>    1.4526    0.0000 </r>
       <r>    1.4529    0.0000 </r>
       <r>    1.4645    0.0000 </r>
       <r>    1.4679    0.0000 </r>
       <r>    1.6324    0.0000 </r>
       <r>    1.6786    0.0000 </r>
       <r>    1.6789    0.0000 </r>
       <r>    1.7640    0.0000 </r>
       <r>    1.7643    0.0000 </r>
       <r>    1.7855    0.0000 </r>
       <r>    1.8393    0.0000 </r>
       <r>    1.8396    0.0000 </r>
       <r>    1.8694    0.0000 </r>
       <r>    1.8698    0.0000 </r>
       <r>    2.0348    0.0000 </r>
       <r>    2.0351    0.0000 </r>
       <r>    2.1564    0.0000 </r>
       <r>    2.1567    0.0000 </r>
       <r>    2.2052    0.0000 </r>
       <r>    2.3633    0.0000 </r>
      </set>
      <set comment="kpoint 9">
       <r>  -22.9412    1.0000 </r>
       <r>  -22.6465    1.0000 </r>
       <r>  -22.0602    1.0000 </r>
       <r>  -22.0601    1.0000 </r>
       <r>  -20.9022    1.0000 </r>
       <r>  -20.9008    1.0000 </r>
       <r>  -20.3322    1.0000 </r>
       <r>  -20.3305    1.0000 </r>
       <r>  -20.3299    1.0000 </r>
       <r>  -19.4889    1.0000 </r>
       <r>  -18.6758    1.0000 </r>
       <r>  -18.6748    1.0000 </r>
       <r>  -18.4232    1.0000 </r>
       <r>  -18.4219    1.0000 </r>
       <r>  -17.1969    1.0000 </r>
       <r>  -17.1953    1.0000 </r>
       <r>  -16.0100    1.0000 </r>
       <r>  -16.0039    1.0000 </r>
       <r>  -15.8732    1.0000 </r>
       <r>  -15.8722    1.0000 </r>
       <r>  -15.3004    1.0000 </r>
       <r>  -15.2942    1.0000 </r>
       <r>  -14.9758    1.0000 </r>
       <r>  -13.7102    1.0000 </r>
       <r>  -13.3620    1.0000 </r>
       <r>  -13.3613    1.0000 </r>
[...]
       <r>     3.3016     0.0000   102.0000 </r>
       <r>     3.3964     0.0000   102.0000 </r>
       <r>     3.4911     0.0000   102.0000 </r>
       <r>     3.5859     0.0000   102.0000 </r>
       <r>     3.6807     0.0000   102.0000 </r>
       <r>     3.7755     0.0000   102.0000 </r>
       <r>     3.8703     0.0000   102.0000 </r>
       <r>     3.9651     0.0000   102.0000 </r>
      </set>
      <set comment="spin 2">
       <r>   -24.4702     0.0000     0.0000 </r>
       <r>   -24.3755     0.0000     0.0000 </r>
       <r>   -24.2807     0.0000     0.0000 </r>
       <r>   -24.1859     0.0000     0.0000 </r>
       <r>   -24.0911     0.0000     0.0000 </r>
       <r>   -23.9963     0.0000     0.0000 </r>
       <r>   -23.9015     0.0000     0.0000 </r>
       <r>   -23.8068     0.0000     0.0000 </r>
       <r>   -23.7120     0.0000     0.0000 </r>
       <r>   -23.6172     0.0000     0.0000 </r>
       <r>   -23.5224     0.0000     0.0000 </r>
       <r>   -23.4276     0.0000     0.0000 </r>
       <r>   -23.3328     0.0000     0.0000 </r>
       <r>   -23.2381     0.0000     0.0000 </r>
       <r>   -23.1433     2.3621     0.0407 </r>
       <r>   -23.0485     2.4311     0.2763 </r>
       <r>   -22.9537     2.3769     0.5185 </r>
       <r>   -22.8589     2.4222     0.7973 </r>
       <r>   -22.7641     0.6831     1.0401 </r>
       <r>   -22.6693     3.2369     1.2258 </r>
       <r>   -22.5746     1.6165     1.4303 </r>
       <r>   -22.4798     1.3557     1.5711 </r>
       <r>   -22.3850     2.5078     1.9193 </r>
       <r>   -22.2902     2.8131     2.1714 </r>
       <r>   -22.1954     2.1331     2.4146 </r>
       <r>   -22.1006     2.2507     2.6224 </r>
       <r>   -22.0059     2.2374     2.8358 </r>
       <r>   -21.9111     3.9824     3.1106 </r>
       <r>   -21.8163     2.7915     3.4317 </r>
       <r>   -21.7215     1.6006     3.6398 </r>
       <r>   -21.6267     1.6031     3.7850 </r>
       <r>   -21.5319     0.8724     4.0724 </r>
       <r>   -21.4371     2.6976     4.2416 </r>
       <r>   -21.3424     1.7644     4.5317 </r>
       <r>   -21.2476     1.9829     4.7093 </r>
       <r>   -21.1528     2.2014     4.9076 </r>
       <r>   -21.0580     2.6328     5.1300 </r>
       <r>   -20.9632     5.0309     5.5329 </r>
       <r>   -20.8684     2.9126     6.0205 </r>
       <r>   -20.7737     1.8178     6.2447 </r>
       <r>   -20.6789     0.7230     6.3651 </r>
       <r>   -20.5841     0.8037     6.4336 </r>
       <r>   -20.4893     0.9731     6.5178 </r>
       <r>   -20.3945     1.1424     6.6180 </r>
       <r>   -20.2997     6.7599     7.0073 </r>
       <r>   -20.2050     4.0792     7.5210 </r>
       <r>   -20.1102     1.3375     7.8207 </r>
       <r>   -20.0154     1.3905     7.9500 </r>
       <r>   -19.9206     1.4436     8.0843 </r>
       <r>   -19.8258     2.8786     8.3785 </r>
       <r>   -19.7310     2.8312     8.6491 </r>
       <r>   -19.6362     4.7188     8.9595 </r>
       <r>   -19.5415     2.2623     9.2864 </r>
       <r>   -19.4467     1.1314     9.4422 </r>
       <r>   -19.3519     1.0018     9.5433 </r>
       <r>   -19.2571     2.4237     9.8134 </r>
       <r>   -19.1623     2.4037    10.0422 </r>
       <r>   -19.0675     2.3836    10.2691 </r>
       <r>   -18.9728     2.8362    10.5002 </r>
       <r>   -18.8780     6.1153    10.8566 </r>
       <r>   -18.7832     3.4925    11.4954 </r>
       <r>   -18.6884     3.0294    11.8045 </r>
       <r>   -18.5936     1.5843    11.9998 </r>
       <r>   -18.4988     0.1560    12.0302 </r>
       <r>   -18.4040     1.1299    12.0626 </r>
       <r>   -18.3093     1.9859    12.2102 </r>
       <r>   -18.2145     2.8418    12.4390 </r>
       <r>   -18.1197     3.6978    12.7489 </r>
       <r>   -18.0249     9.2690    13.3898 </r>
       <r>   -17.9301     3.2925    13.9553 </r>
       <r>   -17.8353     3.9605    14.2877 </r>
       <r>   -17.7406     1.0182    14.5560 </r>
       <r>   -17.6458     1.2397    14.6630 </r>
       <r>   -17.5510     1.4611    14.7910 </r>
       <r>   -17.4562     1.6825    14.9400 </r>
       <r>   -17.3614     1.9040    15.1099 </r>
       <r>   -17.2666     1.9360    15.3230 </r>
       <r>   -17.1719     1.1015    15.5083 </r>
       <r>   -17.0771     0.9889    15.6074 </r>
       <r>   -16.9823     0.8764    15.6958 </r>
       <r>   -16.8875     0.7863    15.7736 </r>
       <r>   -16.7927     1.2613    15.8706 </r>
       <r>   -16.6979     2.6306    16.0319 </r>
       <r>   -16.6031     2.7362    16.3928 </r>
       <r>   -16.5084     1.7239    16.6016 </r>
       <r>   -16.4136     2.0040    16.7783 </r>
       <r>   -16.3188    12.1155    17.0563 </r>
       <r>   -16.2240     2.9926    17.3487 </r>
       <r>   -16.1292     3.7914    17.6643 </r>
       <r>   -16.0344     4.6106    18.0625 </r>
       <r>   -15.9397     5.2750    18.5683 </r>
       <r>   -15.8449     3.8443    19.0686 </r>
       <r>   -15.7501     2.4515    19.3670 </r>
       <r>   -15.6553     1.0587    19.5333 </r>
       <r>   -15.5605     0.5814    19.6017 </r>
       <r>   -15.4657     1.4218    19.6828 </r>
       <r>   -15.3709     2.7809    19.8819 </r>
       <r>   -15.2762     4.7705    20.2279 </r>
       <r>   -15.1814     4.0643    20.6466 </r>
       <r>   -15.0866     3.3581    20.9983 </r>
       <r>   -14.9918     2.3671    21.2813 </r>
       <r>   -14.8970     2.3200    21.5141 </r>
       <r>   -14.8022     1.4730    21.7629 </r>
       <r>   -14.7075     1.5285    21.9051 </r>
       <r>   -14.6127     1.5840    22.0526 </r>
       <r>   -14.5179     2.7220    22.2822 </r>
       <r>   -14.4231     2.1693    22.5140 </r>
       <r>   -14.3283     1.6166    22.6934 </r>
       <r>   -14.2335     2.5072    23.0814 </r>
       <r>   -14.1388     0.9956    23.2424 </r>
       <r>   -14.0440     2.1416    23.4029 </r>
       <r>   -13.9492     2.2943    23.6131 </r>
       <r>   -13.8544     2.4470    23.8378 </r>
       <r>   -13.7596     2.9732    24.0890 </r>
       <r>   -13.6648     3.0647    24.3811 </r>
       <r>   -13.5700     4.5076    24.8168 </r>
       <r>   -13.4753     3.0529    25.1901 </r>
       <r>   -13.3805     2.9903    25.4765 </r>
       <r>   -13.2857     2.0583    25.6773 </r>
       <r>   -13.1909     2.4707    25.8919 </r>
       <r>   -13.0961     7.0635    26.3270 </r>
       <r>   -13.0013     3.0269    26.7932 </r>
       <r>   -12.9066     1.2061    26.9444 </r>
       <r>   -12.8118     1.4369    27.0697 </r>
       <r>   -12.7170     1.6676    27.2168 </r>
       <r>   -12.6222     1.8984    27.3858 </r>
       <r>   -12.5274     3.6380    27.6264 </r>
       <r>   -12.4326     2.6840    27.9599 </r>
       <r>   -12.3378     7.6784    28.4227 </r>
       <r>   -12.2431     6.2453    29.0825 </r>
       <r>   -12.1483     2.0222    29.4999 </r>
       <r>   -12.0535     1.7575    29.6790 </r>
       <r>   -11.9587     1.4928    29.8331 </r>
       <r>   -11.8639     1.2281    29.9620 </r>
       <r>   -11.7691     0.3161    30.1198 </r>
       <r>   -11.6744     3.0463    30.3285 </r>
       <r>   -11.5796     3.2475    30.6268 </r>
       <r>   -11.4848     8.4721    31.2858 </r>
       <r>   -11.3900     5.7530    32.0278 </r>
       <r>   -11.2952     3.6571    32.4737 </r>
       <r>   -11.2004     5.6039    32.7521 </r>
       <r>   -11.1057     2.8736    33.1349 </r>
       <r>   -11.0109     4.6083    33.4655 </r>
       <r>   -10.9161     6.6941    34.0522 </r>
       <r>   -10.8213     7.2728    34.7142 </r>
       <r>   -10.7265     8.6246    35.6692 </r>
       <r>   -10.6317     7.1457    36.3740 </r>
       <r>   -10.5369     4.2150    37.0091 </r>
       <r>   -10.4422     4.6241    37.4280 </r>
       <r>   -10.3474     2.7342    37.8151 </r>
       <r>   -10.2526     7.8479    38.4233 </r>
       <r>   -10.1578    16.3836    39.2407 </r>
       <r>   -10.0630     9.3873    40.2997 </r>
       <r>    -9.9682     5.5724    41.2470 </r>
       <r>    -9.8735    10.2113    41.5937 </r>
       <r>    -9.7787    10.8361    42.5032 </r>
       <r>    -9.6839     8.1674    43.4578 </r>
       <r>    -9.5891     4.2618    44.0469 </r>
       <r>    -9.4943     5.6897    44.5080 </r>
       <r>    -9.3995     8.2208    45.1128 </r>
       <r>    -9.3047     3.6574    45.5518 </r>
       <r>    -9.2100     5.9433    45.9955 </r>
       <r>    -9.1152     6.5319    46.7896 </r>
       <r>    -9.0204     5.1480    47.2798 </r>
       <r>    -8.9256     4.5706    47.7989 </r>
       <r>    -8.8308     4.4888    48.2283 </r>
       <r>    -8.7360     2.7300    48.9821 </r>
       <r>    -8.6413     6.4121    49.3105 </r>
       <r>    -8.5465     5.3553    49.8833 </r>
       <r>    -8.4517     4.3991    50.3455 </r>
       <r>    -8.3569     3.5316    50.7176 </r>
       <r>    -8.2621     3.5024    51.0509 </r>
       <r>    -8.1673     4.0838    51.3826 </r>
       <r>    -8.0726     8.9884    51.9581 </r>
       <r>    -7.9778     4.8153    52.6181 </r>
       <r>    -7.8830     5.1834    53.2275 </r>
       <r>    -7.7882     0.5372    53.6432 </r>
       <r>    -7.6934     0.4971    53.6922 </r>
       <r>    -7.5986     3.5221    53.8048 </r>
       <r>    -7.5038     7.8132    54.4192 </r>
       <r>    -7.4091     5.7189    55.0179 </r>
       <r>    -7.3143     5.4174    55.5229 </r>
       <r>    -7.2195     5.0167    56.0726 </r>
       <r>    -7.1247     3.9105    56.5401 </r>
       <r>    -7.0299     3.2979    56.8760 </r>
       <r>    -6.9351     3.1298    57.1806 </r>
       <r>    -6.8404     3.8117    57.6542 </r>
       <r>    -6.7456     3.1871    57.9840 </r>
       <r>    -6.6508     2.9822    58.2677 </r>
       <r>    -6.5560     3.6776    58.5834 </r>
       <r>    -6.4612     4.3731    58.9649 </r>
       <r>    -6.3664    22.6303    59.5978 </r>
       <r>    -6.2717     1.0269    60.0128 </r>
       <r>    -6.1769     0.4476    60.0471 </r>
       <r>    -6.0821     3.2026    60.2234 </r>
       <r>    -5.9873     4.1449    60.7345 </r>
       <r>    -5.8925     3.4900    61.0963 </r>
       <r>    -5.7977     2.8351    61.3961 </r>
       <r>    -5.7029     3.0275    61.6718 </r>
       <r>    -5.6082     4.0103    62.0687 </r>
       <r>    -5.5134     1.0257    62.3789 </r>
       <r>    -5.4186     1.2788    62.4881 </r>
       <r>    -5.3238     1.5320    62.6213 </r>
       <r>    -5.2290     1.7852    62.7785 </r>
       <r>    -5.1342     1.3968    62.9912 </r>
       <r>    -5.0395     1.3682    63.1222 </r>
       <r>    -4.9447     1.3396    63.2506 </r>
       <r>    -4.8499     1.3111    63.3762 </r>
       <r>    -4.7551     0.9438    63.4832 </r>
       <r>    -4.6603     0.9382    63.5728 </r>
       <r>    -4.5655     0.8511    63.6576 </r>
       <r>    -4.4707     0.7641    63.7342 </r>
       <r>    -4.3760     0.6770    63.8025 </r>
       <r>    -4.2812     0.5899    63.8625 </r>
       <r>    -4.1864     0.5028    63.9143 </r>
       <r>    -4.0916     0.4158    63.9578 </r>
       <r>    -3.9968     0.0000    64.0000 </r>
       <r>    -3.9020     0.0000    64.0000 </r>
       <r>    -3.8073     0.0000    64.0000 </r>
       <r>    -3.7125     0.0000    64.0000 </r>
       <r>    -3.6177     0.0000    64.0000 </r>
       <r>    -3.5229     0.0000    64.0000 </r>
       <r>    -3.4281     0.0000    64.0000 </r>
       <r>    -3.3333     0.0000    64.0000 </r>
       <r>    -3.2386     0.0000    64.0000 </r>
       <r>    -3.1438     0.4879    64.0700 </r>
       <r>    -3.0490     0.5931    64.1212 </r>
       <r>    -2.9542     0.6983    64.1824 </r>
       <r>    -2.8594     0.8036    64.2536 </r>
       <r>    -2.7646     0.9088    64.3348 </r>
       <r>    -2.6698     1.0140    64.4259 </r>
       <r>    -2.5751     1.0298    64.5245 </r>
       <r>    -2.4803     1.7635    64.6771 </r>
       <r>    -2.3855     1.7387    64.8431 </r>
       <r>    -2.2907     2.2542    65.0801 </r>
       <r>    -2.1959     1.8357    65.2739 </r>
       <r>    -2.1011     1.4171    65.4281 </r>
       <r>    -2.0064     5.0442    65.6485 </r>
       <r>    -1.9116     6.8500    66.1578 </r>
       <r>    -1.8168     8.4737    66.9229 </r>
       <r>    -1.7220     4.1435    67.5385 </r>
       <r>    -1.6272     2.2484    67.8414 </r>
       <r>    -1.5324     0.1852    67.9344 </r>
       <r>    -1.4376     1.1963    68.0277 </r>
       <r>    -1.3429     1.3647    68.1490 </r>
       <r>    -1.2481     1.5330    68.2864 </r>
       <r>    -1.1533     2.9224    68.5131 </r>
       <r>    -1.0585     3.7682    68.8297 </r>
       <r>    -0.9637     3.8231    69.1903 </r>
       <r>    -0.8689     3.6606    69.6285 </r>
       <r>    -0.7742     1.8919    69.8489 </r>
       <r>    -0.6794     1.8979    70.0285 </r>
       <r>    -0.5846     1.9039    70.2087 </r>
       <r>    -0.4898     1.0895    70.4086 </r>
       <r>    -0.3950     1.5683    70.5487 </r>
       <r>    -0.3002     1.6970    70.7029 </r>
       <r>    -0.2055     2.9475    70.9608 </r>
       <r>    -0.1107     3.3937    71.2599 </r>
       <r>    -0.0159     5.6853    71.7010 </r>
       <r>     0.0789     5.7799    72.2444 </r>
       <r>     0.1737     3.2538    72.7841 </r>
       <r>     0.2685     2.9565    73.1488 </r>
       <r>     0.3633     1.4779    73.3997 </r>
       <r>     0.4580     4.0573    73.6272 </r>
       <r>     0.5528     3.2439    73.9435 </r>
       <r>     0.6476     7.2802    74.5046 </r>
       <r>     0.7424     8.7811    75.6460 </r>
       <r>     0.8372     8.4064    76.4950 </r>
       <r>     0.9320     9.9179    77.3080 </r>
       <r>     1.0267     9.1114    78.5266 </r>
       <r>     1.1215     6.7274    79.3695 </r>
       <r>     1.2163    13.5650    81.1046 </r>
       <r>     1.3111    24.9748    82.3256 </r>
       <r>     1.4059    21.3255    84.1620 </r>
       <r>     1.5007     7.6786    85.3693 </r>
       <r>     1.5955     9.4830    86.5619 </r>
       <r>     1.6902    23.5899    88.0886 </r>
       <r>     1.7850    14.8063    89.6152 </r>
       <r>     1.8798    16.6957    91.2910 </r>
       <r>     1.9746    22.0592    93.3962 </r>
       <r>     2.0694    21.1277    95.2043 </r>
       <r>     2.1642    20.7641    97.2428 </r>
       <r>     2.2589    16.5024    98.8440 </r>
       <r>     2.3537    14.3827   100.4036 </r>
       <r>     2.4485     5.8862   101.3999 </r>
       <r>     2.5433     2.1943   101.8615 </r>
       <r>     2.6381     0.5371   101.9910 </r>
       <r>     2.7329     0.0000   102.0000 </r>
       <r>     2.8276     0.0000   102.0000 </r>
       <r>     2.9224     0.0000   102.0000 </r>
       <r>     3.0172     0.0000   102.0000 </r>
       <r>     3.1120     0.0000   102.0000 </r>
       <r>     3.2068     0.0000   102.0000 </r>
       <r>     3.3016     0.0000   102.0000 </r>
       <r>     3.3964     0.0000   102.0000 </r>
       <r>     3.4911     0.0000   102.0000 </r>
       <r>     3.5859     0.0000   102.0000 </r>
       <r>     3.6807     0.0000   102.0000 </r>
       <r>     3.7755     0.0000   102.0000 </r>
       <r>     3.8703     0.0000   102.0000 </r>
       <r>     3.9651     0.0000   102.0000 </r>
      </set>
     </set>
    </array>
   </total>
  </dos>
 </calculation>
 <structure name="finalpos" >
  <crystal>
   <varray name="basis" >
    <v>       9.85432384      -0.00499347       0.00000044 </v>
    <v>       4.92948209       8.53130901       0.00000052 </v>
    <v>       0.00000222       0.00000176      49.98122779 </v>
   </varray>
   <i name="volume">   4203.16619791 </i>
   <varray name="rec_basis" >
    <v>       0.10144859      -0.05861809      -0.00000000 </v>
    <v>       0.00005938       0.11718100      -0.00000000 </v>
    <v>      -0.00000000      -0.00000000       0.02000751 </v>
   </varray>
  </crystal>
  <varray name="positions" >
   <v>       0.99991137       0.99990152       0.46800000 </v>
   <v>       0.08330021       0.08322602       0.46800000 </v>
   <v>       0.99991137       0.24990152       0.46800000 </v>
   <v>       0.08330021       0.33322603       0.46800000 </v>
   <v>       0.99991137       0.49990152       0.46800000 </v>
   <v>       0.08330021       0.58322603       0.46800000 </v>
   <v>       0.99991137       0.74990152       0.46800000 </v>
   <v>       0.08330022       0.83322602       0.46800000 </v>
   <v>       0.24991137       0.99990152       0.46800000 </v>
   <v>       0.33330022       0.08322602       0.46800000 </v>
   <v>       0.24991137       0.24990152       0.46800000 </v>
   <v>       0.33330022       0.33322602       0.46800000 </v>
   <v>       0.24991137       0.49990152       0.46800000 </v>
   <v>       0.33330022       0.58322602       0.46800000 </v>
   <v>       0.24991137       0.74990152       0.46800000 </v>
   <v>       0.33330022       0.83322602       0.46800000 </v>
   <v>       0.49991138       0.99990152       0.46800000 </v>
   <v>       0.58330022       0.08322602       0.46800000 </v>
   <v>       0.49991138       0.24990152       0.46800000 </v>
   <v>       0.58330022       0.33322602       0.46800000 </v>
   <v>       0.49991137       0.49990152       0.46800000 </v>
   <v>       0.58330022       0.58322602       0.46800000 </v>
   <v>       0.49991137       0.74990152       0.46800000 </v>
   <v>       0.58330022       0.83322602       0.46800000 </v>
   <v>       0.74991137       0.99990152       0.46800000 </v>
   <v>       0.83330021       0.08322603       0.46800000 </v>
   <v>       0.74991137       0.24990152       0.46800000 </v>
   <v>       0.83330021       0.33322603       0.46800000 </v>
   <v>       0.74991137       0.49990152       0.46800000 </v>
   <v>       0.83330021       0.58322602       0.46800000 </v>
   <v>       0.74991137       0.74990152       0.46800000 </v>
   <v>       0.83330022       0.83322602       0.46800000 </v>
  </varray>
  <varray name="velocities" >
   <v>       0.00000000       0.00000000       0.00000000 </v>
   <v>       0.00000000       0.00000000       0.00000000 </v>
   <v>       0.00000000       0.00000000       0.00000000 </v>
   <v>       0.00000000       0.00000000       0.00000000 </v>
   <v>       0.00000000       0.00000000       0.00000000 </v>
   <v>       0.00000000       0.00000000       0.00000000 </v>
   <v>       0.00000000       0.00000000       0.00000000 </v>
   <v>       0.00000000       0.00000000       0.00000000 </v>
   <v>       0.00000000       0.00000000       0.00000000 </v>
   <v>       0.00000000       0.00000000       0.00000000 </v>
   <v>       0.00000000       0.00000000       0.00000000 </v>
   <v>       0.00000000       0.00000000       0.00000000 </v>
   <v>       0.00000000       0.00000000       0.00000000 </v>
   <v>       0.00000000       0.00000000       0.00000000 </v>
   <v>       0.00000000       0.00000000       0.00000000 </v>
   <v>       0.00000000       0.00000000       0.00000000 </v>
   <v>       0.00000000       0.00000000       0.00000000 </v>
   <v>       0.00000000       0.00000000       0.00000000 </v>
   <v>       0.00000000       0.00000000       0.00000000 </v>
   <v>       0.00000000       0.00000000       0.00000000 </v>
   <v>       0.00000000       0.00000000       0.00000000 </v>
   <v>       0.00000000       0.00000000       0.00000000 </v>
   <v>       0.00000000       0.00000000       0.00000000 </v>
   <v>       0.00000000       0.00000000       0.00000000 </v>
   <v>       0.00000000       0.00000000       0.00000000 </v>
   <v>       0.00000000       0.00000000       0.00000000 </v>
   <v>       0.00000000       0.00000000       0.00000000 </v>
   <v>       0.00000000       0.00000000       0.00000000 </v>
   <v>       0.00000000       0.00000000       0.00000000 </v>
   <v>       0.00000000       0.00000000       0.00000000 </v>
   <v>       0.00000000       0.00000000       0.00000000 </v>
   <v>       0.00000000       0.00000000       0.00000000 </v>
  </varray>
 </structure>
</modeling>
