unknown system                          
           1
     9.854324   -0.004993    0.000000
     4.929482    8.531309    0.000001
     0.000002    0.000002   49.981228
   C 
  32
Direct configuration=     1
   0.99991137  0.99990152  0.46800000
   0.08330021  0.08322602  0.46800000
   0.99991137  0.24990152  0.46800000
   0.08330021  0.33322603  0.46800000
   0.99991137  0.49990152  0.46800000
   0.08330021  0.58322603  0.46800000
   0.99991137  0.74990152  0.46800000
   0.08330022  0.83322602  0.46800000
   0.24991137  0.99990152  0.46800000
   0.33330022  0.08322602  0.46800000
   0.24991137  0.24990152  0.46800000
   0.33330022  0.33322602  0.46800000
   0.24991137  0.49990152  0.46800000
   0.33330022  0.58322602  0.46800000
   0.24991137  0.74990152  0.46800000
   0.33330022  0.83322602  0.46800000
   0.49991138  0.99990152  0.46800000
   0.58330022  0.08322602  0.46800000
   0.49991138  0.24990152  0.46800000
   0.58330022  0.33322602  0.46800000
   0.49991137  0.49990152  0.46800000
   0.58330022  0.58322602  0.46800000
   0.49991137  0.74990152  0.46800000
   0.58330022  0.83322602  0.46800000
   0.74991137  0.99990152  0.46800000
   0.83330021  0.08322603  0.46800000
   0.74991137  0.24990152  0.46800000
   0.83330021  0.33322603  0.46800000
   0.74991137  0.49990152  0.46800000
   0.83330021  0.58322602  0.46800000
   0.74991137  0.74990152  0.46800000
   0.83330022  0.83322602  0.46800000
