ITEM: TIMESTEP
573
ITEM: NUMBER OF ATOMS
31
ITEM: BOX BOUNDS xy xz yz pp pp pp
4.4002286064501087e-02 1.4636471764375965e+01 4.8641085322593325e+00
4.2410931589999576e-02 8.4674266248188985e+00 1.5617848112811346e-04
-7.3257775505176755e-07 4.9912579113577735e+01 1.4127600890848698e-04
ITEM: ATOMS id type x y z fx fy fz
1 1 0.0497107 0.0454959 21.9615 6.22322e-06 5.28143e-06 -1.59866e-05
2 1 1.26164 0.745207 21.9615 4.22223e-06 -9.44307e-06 -1.09562e-05
3 1 1.26758 2.1429 21.9615 2.48783e-05 -9.78109e-06 -5.58738e-07
4 1 2.47505 2.84689 21.9615 8.0848e-06 -3.41605e-06 -1.16117e-05
5 1 2.47505 4.2463 21.9615 1.73171e-06 -2.14725e-06 -6.48347e-06
6 1 3.6785 4.94989 21.9615 -1.95046e-05 8.86663e-06 -2.53752e-05
7 1 3.69411 6.35852 21.9615 -1.07426e-05 9.2085e-06 -2.17832e-05
8 1 4.90623 7.07636 21.9615 -1.99958e-05 8.4069e-06 -2.62986e-05
9 1 2.47505 0.0515021 21.9615 1.51163e-05 -8.62929e-06 -7.76089e-06
10 1 3.68845 0.745206 21.9615 1.2507e-06 -3.26721e-06 -1.23566e-05
11 1 3.68252 2.1429 21.9615 2.07424e-05 -8.96601e-07 -1.72735e-05
12 1 4.89177 2.84106 21.9615 2.55416e-06 9.6077e-06 -2.21104e-05
13 1 4.88122 4.23066 21.9615 -7.79274e-06 1.08076e-05 -3.83693e-05
14 1 6.04646 5.00039 21.9613 -1.33722e-05 4.48767e-06 -9.27319e-05
15 1 6.13045 6.39439 21.9615 -1.01034e-05 8.75345e-06 -3.08441e-05
16 1 7.33916 7.08005 21.9615 -1.08161e-05 -1.01837e-05 6.67534e-06
17 1 4.90038 0.0454974 21.9615 9.85641e-06 -2.00216e-06 -3.68895e-07
18 1 6.11143 0.735922 21.9615 -3.08434e-06 9.96869e-06 -1.02907e-05
19 1 6.08992 2.13712 21.9615 1.77039e-05 1.56725e-05 -1.09447e-05
20 1 7.33915 2.76138 21.9616 1.03903e-05 1.83766e-05 2.04953e-07
21 1 8.63185 5.0004 21.9621 -1.23806e-05 -2.23785e-05 0.000151014
22 1 8.54786 6.39439 21.9617 -3.68982e-06 -1.65118e-05 5.47816e-05
23 1 9.77209 7.07636 21.9616 -1.54325e-05 -9.10722e-06 2.64844e-05
24 1 7.33915 0.0451207 21.9615 2.83254e-06 8.67224e-06 -7.6235e-06
25 1 8.56687 0.735924 21.9615 -3.26718e-06 3.10564e-06 -1.16748e-06
26 1 8.58838 2.13712 21.9615 1.87609e-05 1.52024e-06 1.29149e-05
27 1 9.78652 2.84107 21.9615 1.31103e-05 -1.19256e-05 2.67532e-05
28 1 9.79708 4.23066 21.9617 9.50366e-06 -1.30083e-05 5.93588e-05
29 1 10.9998 4.94989 21.9616 -1.06099e-05 -4.12597e-06 2.48995e-05
30 1 10.9842 6.35853 21.9615 -4.98131e-06 -3.14028e-06 1.43335e-05
31 1 12.2033 7.06235 21.9615 -2.11886e-05 7.22834e-06 -6.52451e-06
