units           metal
atom_style      atomic
boundary        p p p
processors		  * * 1
read_data		    V1.data
Reading data file ...
  triclinic box = (0 0 0) to (9.8162093 8.5096963 49.912578) with tilt (4.9269689 9.6324442e-05 0.00014682442)
WARNING: Triclinic box skew is large. LAMMPS will run inefficiently. (src/domain.cpp:220)
  1 by 1 by 1 MPI processor grid
  reading atoms ...
  31 atoms
  read_data CPU = 0.004 seconds
mass            1 12.011

# Define potentials
pair_style      airebo 3.0
pair_coeff      * * CH.airebo C
Reading airebo potential file CH.airebo with DATE: 2011-10-25


# Variable
variable        thermofrq equal 10
variable        Nloop equal 100     # number of loop to run
variable        binding equal pe


# Output
thermo          ${thermofrq}
thermo          10
thermo_style    custom step temp pe lx ly lz pxx pyy pzz fmax fnorm
thermo_modify   line one format float %20.16g
thermo_modify   flush yes norm no lost warn

# Minimize the system in loops
timestep        1.0e-3
variable        nr loop ${Nloop}
variable        nr loop 100
label           loopmin

# Minimize the with cg + box/relax
  fix             frb all box/relax tri 0.0 couple none
  min_style       cg
  min_modify      line quadratic
  minimize        0.0 1.0e-3 10000 10000
Neighbor list info ...
  update: every = 1 steps, delay = 0 steps, check = yes
  max neighbors/atom: 2000, page size: 100000
  master list distance cutoff = 12.2
  ghost atom cutoff = 12.2
  binsize = 6.1, bins = 3 2 9
  1 neighbor lists, perpetual/occasional/extra = 1 0 0
  (1) pair airebo, perpetual
      attributes: full, newton on, ghost
      pair build: full/bin/ghost
      stencil: full/ghost/bin/3d
      bin: standard
WARNING: Energy due to 6 extra global DOFs will be included in minimizer energies
 (src/min.cpp:225)
Per MPI rank memory allocation (min/avg/max) = 5.023 | 5.023 | 5.023 Mbytes
   Step          Temp          PotEng           Lx             Ly             Lz            Pxx            Pyy            Pzz            Fmax          Fnorm     
         0                     0   -221.8390331701604         9.8162093397         8.5096962804         49.912578381   -8902.435815604676   -9065.196833838707 -0.0001681643276074338    2.829565742190986    7.190056497955084
        10                     0   -221.8855321296589    9.806570811959363    8.501186584119601    49.91257838006795   -8208.308340825508   -8361.038805020728 -0.0001576418061867515    2.843440936655156    7.204279518140003
        20                     0   -221.9283765047551    9.796935659171135    8.492676887839201    49.91257837912014   -7505.296708852537   -7647.625735908177 -0.0001470756435661912    2.855937598730198    7.218060340043911
        30                     0   -221.9676102812416    9.787304228990353    8.484167191558802    49.91257837815235   -6793.447944073475   -6924.981600181522 -0.0001364997755393639    2.866772152045551    7.230587558228714
        40                     0   -222.0033001691285    9.777676966003865    8.475657495278403    49.91257837715861   -6072.817585205526   -6193.154576160569 -0.0001259593790727081    2.875565923856484    7.240767222762228
        50                     0   -222.0355453557162     9.76805449161688    8.467147798998003    49.91257837613013   -5343.513824578779   -5452.256302744221 -0.0001155162244610014    2.881791709555338    7.247091737499832
        60                     0   -222.0644938517397    9.758437739051438    8.458638102717604    49.91257837505347   -4605.717948289861   -4702.484094227192 -0.00010525782537605     2.88468806910308    7.247413459910881
        70                     0   -222.0903718937852    9.748828170746224    8.450128406437205    49.91257837390682   -3859.748091538144   -3944.162946118218 -9.531415981722254e-05    2.883093544568047    7.238528002558723
        80                     0   -222.1135423042472    9.739228215907412    8.441618710156805    49.91257837265186   -3106.157063239985   -3177.849530347404 -8.589130811895253e-05    2.875103681560628    7.215326339309976
        90                     0   -222.1346372274772    9.729642322245372    8.433109013876406    49.91257837121339   -2345.971940146476   -2404.560507822512 -7.734885923409595e-05     2.85725624714452    7.168811802162454
       100                     0   -222.1549293113133    9.720079933216379    8.424599317596007     49.9125783694155   -1581.367410271059   -1626.411518113773 -7.041744434451383e-05    2.822153670699201    7.080397034851454
       110                     0   -222.1771300707407     9.71081848944648    8.416315068255923    49.91257836678224   -838.4765305334384   -869.6797728902437 -6.708066970617066e-05    2.751293234689445    6.905121959362175
       120                     0   -222.2000882260005    9.704627798161525    8.410707368888286    49.91257836313667   -348.1796949988901   -369.0895724982674 -7.050007938912097e-05    2.638830465500931    6.631790796522874
       130                     0   -222.2290660232978    9.701209381760709    8.407494944607578    49.91257835681758   -94.56164283331245   -108.3080115650149 -8.174278746117819e-05    2.458438243521571    6.200036697847756
       140                     0   -222.2949322463493    9.699423213335608    8.405489674715872    49.91257833159377   -11.87938510677141   -19.42074739757467 -0.0001146302797573065    1.970712919267365    5.041468880018424
       150                     0   -222.4731593219115    9.700639160754916    8.405109178370028    49.91257784709856    148.3850355854896    147.4240430718984 -0.0001784098857180412   0.6841211323811148    1.641299674999051
       160                     0   -222.5225407049416    9.708820750743193     8.41163318854082    49.91257734920487   -27.00396975067521   -28.18091839216192 -0.0001338417534206457   0.5437194160450436    1.179214272061936
       170                     0   -222.5418482044508    9.712263312841168    8.414280913895459     49.9125770927254   -22.80414962092445   -23.69580029137321 -0.0001033976598420555   0.4365508631792669   0.9549742762107013
       180                     0   -222.5586247243204    9.715832710971391    8.416960815703803    49.91257682109726    7.445104172994077    6.719914297804523 -7.155860899093861e-05   0.3199344543082407   0.7058973526749153
       190                     0   -222.5709229655169    9.720368165718016    8.420364590733799    49.91257655374547    -20.8345704055954   -21.56239037847291 -4.155045812029363e-05   0.2034314218961965   0.4534766632170107
       200                     0   -222.5764937847823    9.722610901772688     8.42179709669565    49.91257637986179    53.58325904991417    53.26170479632341 -1.918058678929618e-05   0.1182094348619539   0.2604193667504209
       210                     0   -222.5779559269693    9.723777830627137    8.422544132915982    49.91257632443441    65.67721387823528    65.40309588546546 -9.699129862335634e-06  0.08351253887811914   0.1838013567465019
       220                     0   -222.5787129267466    9.724919004570335    8.423314066069221    49.91257629875955    49.22533291869421    48.68634664822164 -2.789645193900642e-06  0.06085036708067642   0.1327549790205696
       230                     0   -222.5790079087951    9.726076129569863    8.424188364036329     49.9125762946897   -6.939905348707087   -7.631323349136532 3.978140720818719e-07   0.0503337045350951   0.1148809149944614
       240                     0   -222.5793336422653      9.7262041216628    8.424153362960842    49.91257630747439    42.91200734431434    35.90527928365324 7.113065559439291e-06  0.03147218840744041   0.0692013079800419
       250                     0   -222.5795244373329    9.726731581033892    8.425014215292334    49.91257637708675    52.15173795701447   -8.955649251549566 1.388119576182175e-05  0.01496420368851468  0.04643186818970169
       260                     0   -222.5795910464423    9.727940046031232    8.424835323176243      49.912576485873   -8.456808204753084    11.37806724526312 1.894862644923432e-05 0.007749351221589287  0.02445463473758505
       270                     0   -222.5796075888457    9.728022322637665    8.424922653033219    49.91257659417261   -5.195825517380533    4.998375826362046 2.190765478876937e-05 0.005687033312693951  0.01601181126155262
       280                     0   -222.5796154529683     9.72788681853093    8.425092555942568    49.91257671053568    9.168971769172462   -9.249538413034962 2.413724485698429e-05 0.003140477593597315   0.0124233333047694
       290                     0    -222.579619986066    9.728070324247513    8.424960240907097     49.9125768324492    -0.11998551834078   0.1196927160584878 2.604562548196179e-05 0.003208235334035786  0.01081848414687053
       300                     0   -222.5796233213728    9.728194288916718    8.424874180391479    49.91257704076898     -5.2366268203155    5.172899289401884  2.8803227858255e-05 0.002739380682766972 0.009951337776608438
       310                     0   -222.5796267132924    9.728107678392227    8.424964433265886    49.91257745430097     4.76185859232433   -4.711597202843777 3.30420919459861e-05 0.001082403981948883 0.003708089817524068
       320                     0   -222.5796271136784     9.72819858693954    8.424883283088013      49.912577758727  -0.6933139558271346   0.6849788110897865 3.549568976391169e-05 0.0007140078261590877 0.002334444813349332
       330                     0   -222.5796272404745    9.728209589622251    8.424873358402792    49.91257804003255   -1.018522236982909    1.006884834150359 3.754112357835034e-05 0.0003122377918962543 0.001252480041538853
       340                     0   -222.5796272816253    9.728188852873433    8.424891057501382    49.91257826301902   0.6304418118465666  -0.6233345605488789 3.904360562318188e-05 0.0002290215148354289 0.0008677512992207746
       350                     0   -222.5796273044542    9.728196449406109    8.424884495332806    49.91257848853648   0.2656325576665395  -0.2626521885523453 4.050052910254788e-05 0.000208104519662016 0.0007212453615424018
       360                     0   -222.5796273174311    9.728209444678793    8.424873321245984    49.91257871731069  -0.5071823739144246    0.501415441588102 4.193886547834014e-05 0.0001729313303527919 0.0005886028383111062
       370                     0   -222.5796273258344    9.728203375617117    8.424878512236285     49.9125789483363 -0.003268868431030127  0.00321970540158723 4.335286227386038e-05 0.0001340881348951355 0.0004385814555264921
       374                     0   -222.5796273288053    9.728205774422626    8.424876449011839    49.91257904683955  -0.1366870924485273   0.1351270231155024 4.394678842620908e-05 0.0001354686275883259 0.0003786345653305524
Loop time of 0.120679 on 1 procs for 374 steps with 31 atoms

84.1% CPU use with 1 MPI tasks x no OpenMP threads

Minimization stats:
  Stopping criterion = force tolerance
  Energy initial, next-to-last, final = 
      -221.83903317016  -222.579627328186  -222.579627328805
  Force two-norm initial, final = 33.838717 0.00092343658
  Force max component initial, final = 23.59037 0.00068111166
  Final line search alpha, max atom move = 0.097505982 6.6412461e-05
  Iterations, force evaluations = 374 504

MPI task timing breakdown:
Section |  min time  |  avg time  |  max time  |%varavg| %total
---------------------------------------------------------------
Pair    | 0.094646   | 0.094646   | 0.094646   |   0.0 | 78.43
Neigh   | 0          | 0          | 0          |   0.0 |  0.00
Comm    | 0.00080151 | 0.00080151 | 0.00080151 |   0.0 |  0.66
Output  | 0.022645   | 0.022645   | 0.022645   |   0.0 | 18.76
Modify  | 0          | 0          | 0          |   0.0 |  0.00
Other   |            | 0.002587   |            |       |  2.14

Nlocal:             31 ave          31 max          31 min
Histogram: 1 0 0 0 0 0 0 0 0 0
Nghost:            441 ave         441 max         441 min
Histogram: 1 0 0 0 0 0 0 0 0 0
Neighs:              0 ave           0 max           0 min
Histogram: 1 0 0 0 0 0 0 0 0 0
FullNghs:         5226 ave        5226 max        5226 min
Histogram: 1 0 0 0 0 0 0 0 0 0

Total # of neighbors = 5226
Ave neighs/atom = 168.58065
Neighbor list builds = 0
Dangerous builds = 0

# Minimize the with fire
  unfix           frb
  min_style       fire
  minimize        0.0 1.0e-3 10000 10000
  Parameters for fire:
    dmax  delaystep dtgrow dtshrink alpha0 alphashrink tmax tmin   integrator   halfstepback   abcfire  
     0.1     20      1.1     0.5     0.25     0.99      10  0.02 eulerimplicit      yes          no     
Per MPI rank memory allocation (min/avg/max) = 3.898 | 3.898 | 3.898 Mbytes
   Step          Temp          PotEng           Lx             Ly             Lz            Pxx            Pyy            Pzz            Fmax          Fnorm     
       374                     0   -222.5796273288052    9.728205774422626    8.424876449011839    49.91257904683955  -0.1366870923033229   0.1351270230396413 4.39467884310714e-05 0.0001354686275894283 0.0003786345652878008
       375  1.484932741832793e-08   -222.5796273289189    9.728205774422626    8.424876449011839    49.91257904683955  -0.1303101150907241   0.1287491589834174 4.398684745470509e-05 0.0001355293394282888 0.0003702361121945981
Loop time of 0.00120308 on 1 procs for 1 steps with 31 atoms

94.3% CPU use with 1 MPI tasks x no OpenMP threads

Minimization stats:
  Stopping criterion = force tolerance
  Energy initial, next-to-last, final = 
     -222.579627328805  -222.579627328805  -222.579627328919
  Force two-norm initial, final = 0.00037863457 0.00037023611
  Force max component initial, final = 0.00013546863 0.00013552934
  Final line search alpha, max atom move = 0 0
  Iterations, force evaluations = 1 2

MPI task timing breakdown:
Section |  min time  |  avg time  |  max time  |%varavg| %total
---------------------------------------------------------------
Pair    | 0.00084568 | 0.00084568 | 0.00084568 |   0.0 | 70.29
Neigh   | 0          | 0          | 0          |   0.0 |  0.00
Comm    | 6.01e-06   | 6.01e-06   | 6.01e-06   |   0.0 |  0.50
Output  | 0          | 0          | 0          |   0.0 |  0.00
Modify  | 0          | 0          | 0          |   0.0 |  0.00
Other   |            | 0.0003514  |            |       | 29.21

Nlocal:             31 ave          31 max          31 min
Histogram: 1 0 0 0 0 0 0 0 0 0
Nghost:            441 ave         441 max         441 min
Histogram: 1 0 0 0 0 0 0 0 0 0
Neighs:              0 ave           0 max           0 min
Histogram: 1 0 0 0 0 0 0 0 0 0
FullNghs:         5406 ave        5406 max        5406 min
Histogram: 1 0 0 0 0 0 0 0 0 0

Total # of neighbors = 5406
Ave neighs/atom = 174.3871
Neighbor list builds = 0
Dangerous builds = 0

next nr
jump ${simname}.in loopmin
jump AIREBO.in loopmin

# Minimize the with cg + box/relax
  fix             frb all box/relax tri 0.0 couple none
  min_style       cg
  min_modify      line quadratic
  minimize        0.0 1.0e-3 10000 10000
WARNING: Energy due to 6 extra global DOFs will be included in minimizer energies
 (src/min.cpp:225)
Per MPI rank memory allocation (min/avg/max) = 5.023 | 5.023 | 5.023 Mbytes
   Step          Temp          PotEng           Lx             Ly             Lz            Pxx            Pyy            Pzz            Fmax          Fnorm     
       375  1.484932741832793e-08   -222.5796273289189    9.728205774422626    8.424876449011839    49.91257904683955  -0.1303101151209047   0.1287491591530831 4.398684745054602e-05 0.0001355293394290516 0.0003702361122337707
       376  1.484932741832793e-08   -222.5796273292574    9.728202462727598    8.424879282668938    49.91257905257332   0.0980990681901356 -0.09636048228110844 4.401961398246561e-05 0.0001355982061744906 0.0003480787458256803
Loop time of 0.00143911 on 1 procs for 1 steps with 31 atoms

70.7% CPU use with 1 MPI tasks x no OpenMP threads

Minimization stats:
  Stopping criterion = force tolerance
  Energy initial, next-to-last, final = 
     -222.579627328919  -222.579627328919  -222.579627329257
  Force two-norm initial, final = 0.00088630583 0.00050108597
  Force max component initial, final = 0.00065551443 0.00025047298
  Final line search alpha, max atom move = 0.15255194 3.821014e-05
  Iterations, force evaluations = 1 2

MPI task timing breakdown:
Section |  min time  |  avg time  |  max time  |%varavg| %total
---------------------------------------------------------------
Pair    | 0.00082574 | 0.00082574 | 0.00082574 |   0.0 | 57.38
Neigh   | 0          | 0          | 0          |   0.0 |  0.00
Comm    | 9.781e-06  | 9.781e-06  | 9.781e-06  |   0.0 |  0.68
Output  | 0          | 0          | 0          |   0.0 |  0.00
Modify  | 0          | 0          | 0          |   0.0 |  0.00
Other   |            | 0.0006036  |            |       | 41.94

Nlocal:             31 ave          31 max          31 min
Histogram: 1 0 0 0 0 0 0 0 0 0
Nghost:            441 ave         441 max         441 min
Histogram: 1 0 0 0 0 0 0 0 0 0
Neighs:              0 ave           0 max           0 min
Histogram: 1 0 0 0 0 0 0 0 0 0
FullNghs:         5406 ave        5406 max        5406 min
Histogram: 1 0 0 0 0 0 0 0 0 0

Total # of neighbors = 5406
Ave neighs/atom = 174.3871
Neighbor list builds = 0
Dangerous builds = 0

# Minimize the with fire
  unfix           frb
  min_style       fire
  minimize        0.0 1.0e-3 10000 10000
  Parameters for fire:
    dmax  delaystep dtgrow dtshrink alpha0 alphashrink tmax tmin   integrator   halfstepback   abcfire  
     0.1     20      1.1     0.5     0.25     0.99      10  0.02 eulerimplicit      yes          no     
Per MPI rank memory allocation (min/avg/max) = 3.898 | 3.898 | 3.898 Mbytes
   Step          Temp          PotEng           Lx             Ly             Lz            Pxx            Pyy            Pzz            Fmax          Fnorm     
       376                     0   -222.5796273292574    9.728202462727598    8.424879282668938    49.91257905257332  0.09809904809612204 -0.09636049394845127 4.400623645120738e-05 0.0001355982061745142 0.0003480787458480985
       377  1.254935134478229e-08   -222.5796273293541    9.728202462727598    8.424879282668938    49.91257905257332   0.0952008808547509 -0.09346995867886675 4.404638207440615e-05 0.000135659346268807 0.0003459030954247598
Loop time of 0.000878527 on 1 procs for 1 steps with 31 atoms

77.9% CPU use with 1 MPI tasks x no OpenMP threads

Minimization stats:
  Stopping criterion = force tolerance
  Energy initial, next-to-last, final = 
     -222.579627329257  -222.579627329257  -222.579627329354
  Force two-norm initial, final = 0.00034807875 0.0003459031
  Force max component initial, final = 0.00013559821 0.00013565935
  Final line search alpha, max atom move = 0 0
  Iterations, force evaluations = 1 2

MPI task timing breakdown:
Section |  min time  |  avg time  |  max time  |%varavg| %total
---------------------------------------------------------------
Pair    | 0.00058404 | 0.00058404 | 0.00058404 |   0.0 | 66.48
Neigh   | 0          | 0          | 0          |   0.0 |  0.00
Comm    | 5.083e-06  | 5.083e-06  | 5.083e-06  |   0.0 |  0.58
Output  | 0          | 0          | 0          |   0.0 |  0.00
Modify  | 0          | 0          | 0          |   0.0 |  0.00
Other   |            | 0.0002894  |            |       | 32.94

Nlocal:             31 ave          31 max          31 min
Histogram: 1 0 0 0 0 0 0 0 0 0
Nghost:            441 ave         441 max         441 min
Histogram: 1 0 0 0 0 0 0 0 0 0
Neighs:              0 ave           0 max           0 min
Histogram: 1 0 0 0 0 0 0 0 0 0
FullNghs:         5406 ave        5406 max        5406 min
Histogram: 1 0 0 0 0 0 0 0 0 0

Total # of neighbors = 5406
Ave neighs/atom = 174.3871
Neighbor list builds = 0
Dangerous builds = 0

next nr
jump ${simname}.in loopmin
jump AIREBO.in loopmin

# Minimize the with cg + box/relax
  fix             frb all box/relax tri 0.0 couple none
  min_style       cg
  min_modify      line quadratic
  minimize        0.0 1.0e-3 10000 10000
WARNING: Energy due to 6 extra global DOFs will be included in minimizer energies
 (src/min.cpp:225)
Per MPI rank memory allocation (min/avg/max) = 5.023 | 5.023 | 5.023 Mbytes
   Step          Temp          PotEng           Lx             Ly             Lz            Pxx            Pyy            Pzz            Fmax          Fnorm     
       377  1.254935134478229e-08   -222.5796273293541    9.728202462727598    8.424879282668938    49.91257905257332  0.09520088089324311 -0.09346995876819014 4.404638207551893e-05 0.0001356593462688006 0.0003459030954486407
       378  1.254935134478229e-08   -222.5796273294855    9.728205093914099    8.424877045422029    49.91257905881737 -0.08405007614188086  0.08179039697822578 4.408348832227506e-05 0.0001357441715341742 0.0003573010698265289
Loop time of 0.00161404 on 1 procs for 1 steps with 31 atoms

75.4% CPU use with 1 MPI tasks x no OpenMP threads

Minimization stats:
  Stopping criterion = force tolerance
  Energy initial, next-to-last, final = 
     -222.579627329354  -222.579627329354  -222.579627329486
  Force two-norm initial, final = 0.00049333808 0.00049323565
  Force max component initial, final = 0.00024307307 0.00021460212
  Final line search alpha, max atom move = 0.41139893 8.8287083e-05
  Iterations, force evaluations = 1 2

MPI task timing breakdown:
Section |  min time  |  avg time  |  max time  |%varavg| %total
---------------------------------------------------------------
Pair    | 0.0010057  | 0.0010057  | 0.0010057  |   0.0 | 62.31
Neigh   | 0          | 0          | 0          |   0.0 |  0.00
Comm    | 1.1161e-05 | 1.1161e-05 | 1.1161e-05 |   0.0 |  0.69
Output  | 0          | 0          | 0          |   0.0 |  0.00
Modify  | 0          | 0          | 0          |   0.0 |  0.00
Other   |            | 0.0005972  |            |       | 37.00

Nlocal:             31 ave          31 max          31 min
Histogram: 1 0 0 0 0 0 0 0 0 0
Nghost:            441 ave         441 max         441 min
Histogram: 1 0 0 0 0 0 0 0 0 0
Neighs:              0 ave           0 max           0 min
Histogram: 1 0 0 0 0 0 0 0 0 0
FullNghs:         5406 ave        5406 max        5406 min
Histogram: 1 0 0 0 0 0 0 0 0 0

Total # of neighbors = 5406
Ave neighs/atom = 174.3871
Neighbor list builds = 0
Dangerous builds = 0

# Minimize the with fire
  unfix           frb
  min_style       fire
  minimize        0.0 1.0e-3 10000 10000
  Parameters for fire:
    dmax  delaystep dtgrow dtshrink alpha0 alphashrink tmax tmin   integrator   halfstepback   abcfire  
     0.1     20      1.1     0.5     0.25     0.99      10  0.02 eulerimplicit      yes          no     
Per MPI rank memory allocation (min/avg/max) = 3.898 | 3.898 | 3.898 Mbytes
   Step          Temp          PotEng           Lx             Ly             Lz            Pxx            Pyy            Pzz            Fmax          Fnorm     
       378                     0   -222.5796273294856    9.728205093914099    8.424877045422029    49.91257905881737 -0.08405009046787351    0.081790386232969 4.407010346906139e-05 0.0001357441715354039 0.0003573010697976477
       379  1.322314927179622e-08   -222.5796273295871    9.728205093914099    8.424877045422029    49.91257905881737 -0.07976674192899212  0.07750781567389685 4.411027309492477e-05 0.0001358052431894132 0.0003542151917602407
Loop time of 0.0013763 on 1 procs for 1 steps with 31 atoms

79.0% CPU use with 1 MPI tasks x no OpenMP threads

Minimization stats:
  Stopping criterion = force tolerance
  Energy initial, next-to-last, final = 
     -222.579627329486  -222.579627329486  -222.579627329587
  Force two-norm initial, final = 0.00035730107 0.00035421519
  Force max component initial, final = 0.00013574417 0.00013580524
  Final line search alpha, max atom move = 0 0
  Iterations, force evaluations = 1 2

MPI task timing breakdown:
Section |  min time  |  avg time  |  max time  |%varavg| %total
---------------------------------------------------------------
Pair    | 0.00089089 | 0.00089089 | 0.00089089 |   0.0 | 64.73
Neigh   | 0          | 0          | 0          |   0.0 |  0.00
Comm    | 8.771e-06  | 8.771e-06  | 8.771e-06  |   0.0 |  0.64
Output  | 0          | 0          | 0          |   0.0 |  0.00
Modify  | 0          | 0          | 0          |   0.0 |  0.00
Other   |            | 0.0004766  |            |       | 34.63

Nlocal:             31 ave          31 max          31 min
Histogram: 1 0 0 0 0 0 0 0 0 0
Nghost:            441 ave         441 max         441 min
Histogram: 1 0 0 0 0 0 0 0 0 0
Neighs:              0 ave           0 max           0 min
Histogram: 1 0 0 0 0 0 0 0 0 0
FullNghs:         5406 ave        5406 max        5406 min
Histogram: 1 0 0 0 0 0 0 0 0 0

Total # of neighbors = 5406
Ave neighs/atom = 174.3871
Neighbor list builds = 0
Dangerous builds = 0

next nr
jump ${simname}.in loopmin
jump AIREBO.in loopmin

# Minimize the with cg + box/relax
  fix             frb all box/relax tri 0.0 couple none
  min_style       cg
  min_modify      line quadratic
  minimize        0.0 1.0e-3 10000 10000
WARNING: Energy due to 6 extra global DOFs will be included in minimizer energies
 (src/min.cpp:225)
Per MPI rank memory allocation (min/avg/max) = 5.023 | 5.023 | 5.023 Mbytes
   Step          Temp          PotEng           Lx             Ly             Lz            Pxx            Pyy            Pzz            Fmax          Fnorm     
       379  1.322314927179622e-08   -222.5796273295873    9.728205093914099    8.424877045422029    49.91257905881737 -0.07976674215298296  0.07750781569081804 4.411027308464981e-05 0.0001358052431894172 0.000354215191769379
       380  1.322314927179622e-08   -222.5796273297191    9.728202739837933    8.424879026378164    49.91257906549441  0.08345674882967249 -0.08016779328646606 4.415000142791417e-05 0.0001358963216852045 0.0003410353399222175
Loop time of 0.00154479 on 1 procs for 1 steps with 31 atoms

75.2% CPU use with 1 MPI tasks x no OpenMP threads

Minimization stats:
  Stopping criterion = force tolerance
  Energy initial, next-to-last, final = 
     -222.579627329587  -222.579627329587  -222.579627329719
  Force two-norm initial, final = 0.00047692933 0.00049336155
  Force max component initial, final = 0.0002036657 0.00021308723
  Final line search alpha, max atom move = 0.49100071 0.00010462598
  Iterations, force evaluations = 1 2

MPI task timing breakdown:
Section |  min time  |  avg time  |  max time  |%varavg| %total
---------------------------------------------------------------
Pair    | 0.00087698 | 0.00087698 | 0.00087698 |   0.0 | 56.77
Neigh   | 0          | 0          | 0          |   0.0 |  0.00
Comm    | 8.418e-06  | 8.418e-06  | 8.418e-06  |   0.0 |  0.54
Output  | 0          | 0          | 0          |   0.0 |  0.00
Modify  | 0          | 0          | 0          |   0.0 |  0.00
Other   |            | 0.0006594  |            |       | 42.68

Nlocal:             31 ave          31 max          31 min
Histogram: 1 0 0 0 0 0 0 0 0 0
Nghost:            441 ave         441 max         441 min
Histogram: 1 0 0 0 0 0 0 0 0 0
Neighs:              0 ave           0 max           0 min
Histogram: 1 0 0 0 0 0 0 0 0 0
FullNghs:         5406 ave        5406 max        5406 min
Histogram: 1 0 0 0 0 0 0 0 0 0

Total # of neighbors = 5406
Ave neighs/atom = 174.3871
Neighbor list builds = 0
Dangerous builds = 0

# Minimize the with fire
  unfix           frb
  min_style       fire
  minimize        0.0 1.0e-3 10000 10000
  Parameters for fire:
    dmax  delaystep dtgrow dtshrink alpha0 alphashrink tmax tmin   integrator   halfstepback   abcfire  
     0.1     20      1.1     0.5     0.25     0.99      10  0.02 eulerimplicit      yes          no     
Per MPI rank memory allocation (min/avg/max) = 3.898 | 3.898 | 3.898 Mbytes
   Step          Temp          PotEng           Lx             Ly             Lz            Pxx            Pyy            Pzz            Fmax          Fnorm     
       380                     0    -222.579627329719    9.728202739837933    8.424879026378164    49.91257906549441  0.08345673320000338 -0.08016780422900843 4.413660835375295e-05 0.0001358963216878661 0.0003410353399237109
       381  1.204661519785614e-08   -222.5796273298119    9.728202739837933    8.424879026378164    49.91257906549441  0.08122131336694077 -0.07794310694129511 4.417679450067785e-05 0.0001359572885423932 0.0003391219482371341
Loop time of 0.00163092 on 1 procs for 1 steps with 31 atoms

49.0% CPU use with 1 MPI tasks x no OpenMP threads

Minimization stats:
  Stopping criterion = force tolerance
  Energy initial, next-to-last, final = 
     -222.579627329719  -222.579627329719  -222.579627329812
  Force two-norm initial, final = 0.00034103534 0.00033912195
  Force max component initial, final = 0.00013589632 0.00013595729
  Final line search alpha, max atom move = 0 0
  Iterations, force evaluations = 1 2

MPI task timing breakdown:
Section |  min time  |  avg time  |  max time  |%varavg| %total
---------------------------------------------------------------
Pair    | 0.0010026  | 0.0010026  | 0.0010026  |   0.0 | 61.47
Neigh   | 0          | 0          | 0          |   0.0 |  0.00
Comm    | 8.119e-06  | 8.119e-06  | 8.119e-06  |   0.0 |  0.50
Output  | 0          | 0          | 0          |   0.0 |  0.00
Modify  | 0          | 0          | 0          |   0.0 |  0.00
Other   |            | 0.0006202  |            |       | 38.03

Nlocal:             31 ave          31 max          31 min
Histogram: 1 0 0 0 0 0 0 0 0 0
Nghost:            441 ave         441 max         441 min
Histogram: 1 0 0 0 0 0 0 0 0 0
Neighs:              0 ave           0 max           0 min
Histogram: 1 0 0 0 0 0 0 0 0 0
FullNghs:         5406 ave        5406 max        5406 min
Histogram: 1 0 0 0 0 0 0 0 0 0

Total # of neighbors = 5406
Ave neighs/atom = 174.3871
Neighbor list builds = 0
Dangerous builds = 0

next nr
jump ${simname}.in loopmin
jump AIREBO.in loopmin

# Minimize the with cg + box/relax
  fix             frb all box/relax tri 0.0 couple none
  min_style       cg
  min_modify      line quadratic
  minimize        0.0 1.0e-3 10000 10000
WARNING: Energy due to 6 extra global DOFs will be included in minimizer energies
 (src/min.cpp:225)
Per MPI rank memory allocation (min/avg/max) = 5.023 | 5.023 | 5.023 Mbytes
   Step          Temp          PotEng           Lx             Ly             Lz            Pxx            Pyy            Pzz            Fmax          Fnorm     
       381  1.204661519785614e-08   -222.5796273298119    9.728202739837933    8.424879026378164    49.91257906549441  0.08122131362654227 -0.07794310704282553 4.417679449419483e-05 0.0001359572885461796 0.0003391219482148863
       382  1.204661519785614e-08   -222.5796273299484     9.72820503416658     8.42487711962481    49.91257907189508 -0.07519030342499351  0.07074886162217145 4.421451439532331e-05 0.0001360421406565378 0.0003522406294858671
Loop time of 0.000992488 on 1 procs for 1 steps with 31 atoms

25.4% CPU use with 1 MPI tasks x no OpenMP threads

Minimization stats:
  Stopping criterion = force tolerance
  Energy initial, next-to-last, final = 
     -222.579627329812  -222.579627329812  -222.579627329948
  Force two-norm initial, final = 0.00048744986 0.00047532867
  Force max component initial, final = 0.00020737953 0.00019198078
  Final line search alpha, max atom move = 0.48220768 9.2574608e-05
  Iterations, force evaluations = 1 2

MPI task timing breakdown:
Section |  min time  |  avg time  |  max time  |%varavg| %total
---------------------------------------------------------------
Pair    | 0.0006613  | 0.0006613  | 0.0006613  |   0.0 | 66.63
Neigh   | 0          | 0          | 0          |   0.0 |  0.00
Comm    | 7.305e-06  | 7.305e-06  | 7.305e-06  |   0.0 |  0.74
Output  | 0          | 0          | 0          |   0.0 |  0.00
Modify  | 0          | 0          | 0          |   0.0 |  0.00
Other   |            | 0.0003239  |            |       | 32.63

Nlocal:             31 ave          31 max          31 min
Histogram: 1 0 0 0 0 0 0 0 0 0
Nghost:            441 ave         441 max         441 min
Histogram: 1 0 0 0 0 0 0 0 0 0
Neighs:              0 ave           0 max           0 min
Histogram: 1 0 0 0 0 0 0 0 0 0
FullNghs:         5406 ave        5406 max        5406 min
Histogram: 1 0 0 0 0 0 0 0 0 0

Total # of neighbors = 5406
Ave neighs/atom = 174.3871
Neighbor list builds = 0
Dangerous builds = 0

# Minimize the with fire
  unfix           frb
  min_style       fire
  minimize        0.0 1.0e-3 10000 10000
  Parameters for fire:
    dmax  delaystep dtgrow dtshrink alpha0 alphashrink tmax tmin   integrator   halfstepback   abcfire  
     0.1     20      1.1     0.5     0.25     0.99      10  0.02 eulerimplicit      yes          no     
Per MPI rank memory allocation (min/avg/max) = 3.898 | 3.898 | 3.898 Mbytes
   Step          Temp          PotEng           Lx             Ly             Lz            Pxx            Pyy            Pzz            Fmax          Fnorm     
       382                     0   -222.5796273299486     9.72820503416658     8.42487711962481    49.91257907189508 -0.07519031713998996  0.07074885203933295 4.420111282374178e-05 0.0001360421406533057 0.0003522406294854062
       383  1.285124385793743e-08   -222.5796273300476     9.72820503416658     8.42487711962481    49.91257907189508 -0.07126626340096624  0.06683026826019725 4.424133573070725e-05 0.0001361031273650226 0.000349277888320873
Loop time of 0.000926587 on 1 procs for 1 steps with 31 atoms

24.5% CPU use with 1 MPI tasks x no OpenMP threads

Minimization stats:
  Stopping criterion = force tolerance
  Energy initial, next-to-last, final = 
     -222.579627329949  -222.579627329949  -222.579627330048
  Force two-norm initial, final = 0.00035224063 0.00034927789
  Force max component initial, final = 0.00013604214 0.00013610313
  Final line search alpha, max atom move = 0 0
  Iterations, force evaluations = 1 2

MPI task timing breakdown:
Section |  min time  |  avg time  |  max time  |%varavg| %total
---------------------------------------------------------------
Pair    | 0.00059522 | 0.00059522 | 0.00059522 |   0.0 | 64.24
Neigh   | 0          | 0          | 0          |   0.0 |  0.00
Comm    | 5.611e-06  | 5.611e-06  | 5.611e-06  |   0.0 |  0.61
Output  | 0          | 0          | 0          |   0.0 |  0.00
Modify  | 0          | 0          | 0          |   0.0 |  0.00
Other   |            | 0.0003258  |            |       | 35.16

Nlocal:             31 ave          31 max          31 min
Histogram: 1 0 0 0 0 0 0 0 0 0
Nghost:            441 ave         441 max         441 min
Histogram: 1 0 0 0 0 0 0 0 0 0
Neighs:              0 ave           0 max           0 min
Histogram: 1 0 0 0 0 0 0 0 0 0
FullNghs:         5406 ave        5406 max        5406 min
Histogram: 1 0 0 0 0 0 0 0 0 0

Total # of neighbors = 5406
Ave neighs/atom = 174.3871
Neighbor list builds = 0
Dangerous builds = 0

next nr
jump ${simname}.in loopmin
jump AIREBO.in loopmin

# Minimize the with cg + box/relax
  fix             frb all box/relax tri 0.0 couple none
  min_style       cg
  min_modify      line quadratic
  minimize        0.0 1.0e-3 10000 10000
WARNING: Energy due to 6 extra global DOFs will be included in minimizer energies
 (src/min.cpp:225)
Per MPI rank memory allocation (min/avg/max) = 5.023 | 5.023 | 5.023 Mbytes
   Step          Temp          PotEng           Lx             Ly             Lz            Pxx            Pyy            Pzz            Fmax          Fnorm     
       383  1.285124385793743e-08   -222.5796273300477     9.72820503416658     8.42487711962481    49.91257907189508 -0.07126626344237239  0.06683026819797792 4.424133572702355e-05 0.0001361031273614351 0.0003492778883282703
       384  1.285124385793743e-08   -222.5796273301783    9.728202780890127    8.424878949554454    49.91257907906979  0.08574802771155192 -0.07850555161233563 4.42840425642591e-05 0.0001362010898835176 0.0003365596321374906
Loop time of 0.00195154 on 1 procs for 1 steps with 31 atoms

0.0% CPU use with 1 MPI tasks x no OpenMP threads

Minimization stats:
  Stopping criterion = force tolerance
  Energy initial, next-to-last, final = 
     -222.579627330048  -222.579627330048  -222.579627330178
  Force two-norm initial, final = 0.00045972614 0.00049837175
  Force max component initial, final = 0.00018196172 0.00021893747
  Final line search alpha, max atom move = 0.54956615 0.00012032062
  Iterations, force evaluations = 1 2

MPI task timing breakdown:
Section |  min time  |  avg time  |  max time  |%varavg| %total
---------------------------------------------------------------
Pair    | 0.001345   | 0.001345   | 0.001345   |   0.0 | 68.92
Neigh   | 0          | 0          | 0          |   0.0 |  0.00
Comm    | 1.2974e-05 | 1.2974e-05 | 1.2974e-05 |   0.0 |  0.66
Output  | 0          | 0          | 0          |   0.0 |  0.00
Modify  | 0          | 0          | 0          |   0.0 |  0.00
Other   |            | 0.0005935  |            |       | 30.41

Nlocal:             31 ave          31 max          31 min
Histogram: 1 0 0 0 0 0 0 0 0 0
Nghost:            441 ave         441 max         441 min
Histogram: 1 0 0 0 0 0 0 0 0 0
Neighs:              0 ave           0 max           0 min
Histogram: 1 0 0 0 0 0 0 0 0 0
FullNghs:         5406 ave        5406 max        5406 min
Histogram: 1 0 0 0 0 0 0 0 0 0

Total # of neighbors = 5406
Ave neighs/atom = 174.3871
Neighbor list builds = 0
Dangerous builds = 0

# Minimize the with fire
  unfix           frb
  min_style       fire
  minimize        0.0 1.0e-3 10000 10000
  Parameters for fire:
    dmax  delaystep dtgrow dtshrink alpha0 alphashrink tmax tmin   integrator   halfstepback   abcfire  
     0.1     20      1.1     0.5     0.25     0.99      10  0.02 eulerimplicit      yes          no     
Per MPI rank memory allocation (min/avg/max) = 3.898 | 3.898 | 3.898 Mbytes
   Step          Temp          PotEng           Lx             Ly             Lz            Pxx            Pyy            Pzz            Fmax          Fnorm     
       384                     0   -222.5796273301782    9.728202780890127    8.424878949554454    49.91257907906979  0.08574801261802746 -0.07850556204398096 4.427063261496431e-05 0.0001362010898861438 0.0003365596320901139
       385  1.173249333204064e-08   -222.5796273302697    9.728202780890127    8.424878949554454    49.91257907906979  0.08353306588691276 -0.07630941874264172 4.431086974691359e-05 0.0001362619422205813 0.0003345963963594184
Loop time of 0.00119412 on 1 procs for 1 steps with 31 atoms

0.0% CPU use with 1 MPI tasks x no OpenMP threads

Minimization stats:
  Stopping criterion = force tolerance
  Energy initial, next-to-last, final = 
     -222.579627330178  -222.579627330178   -222.57962733027
  Force two-norm initial, final = 0.00033655963 0.0003345964
  Force max component initial, final = 0.00013620109 0.00013626194
  Final line search alpha, max atom move = 0 0
  Iterations, force evaluations = 1 2

MPI task timing breakdown:
Section |  min time  |  avg time  |  max time  |%varavg| %total
---------------------------------------------------------------
Pair    | 0.00083507 | 0.00083507 | 0.00083507 |   0.0 | 69.93
Neigh   | 0          | 0          | 0          |   0.0 |  0.00
Comm    | 7.223e-06  | 7.223e-06  | 7.223e-06  |   0.0 |  0.60
Output  | 0          | 0          | 0          |   0.0 |  0.00
Modify  | 0          | 0          | 0          |   0.0 |  0.00
Other   |            | 0.0003518  |            |       | 29.46

Nlocal:             31 ave          31 max          31 min
Histogram: 1 0 0 0 0 0 0 0 0 0
Nghost:            441 ave         441 max         441 min
Histogram: 1 0 0 0 0 0 0 0 0 0
Neighs:              0 ave           0 max           0 min
Histogram: 1 0 0 0 0 0 0 0 0 0
FullNghs:         5406 ave        5406 max        5406 min
Histogram: 1 0 0 0 0 0 0 0 0 0

Total # of neighbors = 5406
Ave neighs/atom = 174.3871
Neighbor list builds = 0
Dangerous builds = 0

next nr
jump ${simname}.in loopmin
jump AIREBO.in loopmin

# Minimize the with cg + box/relax
  fix             frb all box/relax tri 0.0 couple none
  min_style       cg
  min_modify      line quadratic
  minimize        0.0 1.0e-3 10000 10000
WARNING: Energy due to 6 extra global DOFs will be included in minimizer energies
 (src/min.cpp:225)
Per MPI rank memory allocation (min/avg/max) = 5.023 | 5.023 | 5.023 Mbytes
   Step          Temp          PotEng           Lx             Ly             Lz            Pxx            Pyy            Pzz            Fmax          Fnorm     
       385  1.173249333204064e-08   -222.5796273302697    9.728202780890127    8.424878949554454    49.91257907906979  0.08353306573691813 -0.07630941872226404 4.431086973408179e-05 0.0001362619422187405 0.0003345963963447025
       386  1.173249333204064e-08   -222.5796273304049    9.728205054275524    8.424877150998451    49.91257908525523 -0.07222226255706851  0.06306315734009237 4.434718761730905e-05 0.0001363431597007113 0.0003467056268540054
Loop time of 0.00135461 on 1 procs for 1 steps with 31 atoms

0.0% CPU use with 1 MPI tasks x no OpenMP threads

Minimization stats:
  Stopping criterion = force tolerance
  Energy initial, next-to-last, final = 
      -222.57962733027   -222.57962733027  -222.579627330405
  Force two-norm initial, final = 0.00049203459 0.00045887084
  Force max component initial, final = 0.00021608359 0.00018440259
  Final line search alpha, max atom move = 0.46278386 8.5338543e-05
  Iterations, force evaluations = 1 2

MPI task timing breakdown:
Section |  min time  |  avg time  |  max time  |%varavg| %total
---------------------------------------------------------------
Pair    | 0.0008407  | 0.0008407  | 0.0008407  |   0.0 | 62.06
Neigh   | 0          | 0          | 0          |   0.0 |  0.00
Comm    | 9.444e-06  | 9.444e-06  | 9.444e-06  |   0.0 |  0.70
Output  | 0          | 0          | 0          |   0.0 |  0.00
Modify  | 0          | 0          | 0          |   0.0 |  0.00
Other   |            | 0.0005045  |            |       | 37.24

Nlocal:             31 ave          31 max          31 min
Histogram: 1 0 0 0 0 0 0 0 0 0
Nghost:            441 ave         441 max         441 min
Histogram: 1 0 0 0 0 0 0 0 0 0
Neighs:              0 ave           0 max           0 min
Histogram: 1 0 0 0 0 0 0 0 0 0
FullNghs:         5406 ave        5406 max        5406 min
Histogram: 1 0 0 0 0 0 0 0 0 0

Total # of neighbors = 5406
Ave neighs/atom = 174.3871
Neighbor list builds = 0
Dangerous builds = 0

# Minimize the with fire
  unfix           frb
  min_style       fire
  minimize        0.0 1.0e-3 10000 10000
  Parameters for fire:
    dmax  delaystep dtgrow dtshrink alpha0 alphashrink tmax tmin   integrator   halfstepback   abcfire  
     0.1     20      1.1     0.5     0.25     0.99      10  0.02 eulerimplicit      yes          no     
Per MPI rank memory allocation (min/avg/max) = 3.898 | 3.898 | 3.898 Mbytes
   Step          Temp          PotEng           Lx             Ly             Lz            Pxx            Pyy            Pzz            Fmax          Fnorm     
       386                     0   -222.5796273304049    9.728205054275524    8.424877150998451    49.91257908525523 -0.07222227568910078  0.06306314833195996 4.43337685933672e-05 0.0001363431597025406 0.0003467056268107686
       387  1.24505359758711e-08   -222.5796273305002    9.728205054275524    8.424877150998451    49.91257908525523 -0.06846982350729791  0.05932617782680601 4.437404427280337e-05 0.0001364040465679718 0.000343926748388352
Loop time of 0.00102099 on 1 procs for 1 steps with 31 atoms

91.7% CPU use with 1 MPI tasks x no OpenMP threads

Minimization stats:
  Stopping criterion = force tolerance
  Energy initial, next-to-last, final = 
     -222.579627330405  -222.579627330405    -222.5796273305
  Force two-norm initial, final = 0.00034670563 0.00034392675
  Force max component initial, final = 0.00013634316 0.00013640405
  Final line search alpha, max atom move = 0 0
  Iterations, force evaluations = 1 2

MPI task timing breakdown:
Section |  min time  |  avg time  |  max time  |%varavg| %total
---------------------------------------------------------------
Pair    | 0.00069342 | 0.00069342 | 0.00069342 |   0.0 | 67.92
Neigh   | 0          | 0          | 0          |   0.0 |  0.00
Comm    | 5.777e-06  | 5.777e-06  | 5.777e-06  |   0.0 |  0.57
Output  | 0          | 0          | 0          |   0.0 |  0.00
Modify  | 0          | 0          | 0          |   0.0 |  0.00
Other   |            | 0.0003218  |            |       | 31.52

Nlocal:             31 ave          31 max          31 min
Histogram: 1 0 0 0 0 0 0 0 0 0
Nghost:            441 ave         441 max         441 min
Histogram: 1 0 0 0 0 0 0 0 0 0
Neighs:              0 ave           0 max           0 min
Histogram: 1 0 0 0 0 0 0 0 0 0
FullNghs:         5406 ave        5406 max        5406 min
Histogram: 1 0 0 0 0 0 0 0 0 0

Total # of neighbors = 5406
Ave neighs/atom = 174.3871
Neighbor list builds = 0
Dangerous builds = 0

next nr
jump ${simname}.in loopmin
jump AIREBO.in loopmin

# Minimize the with cg + box/relax
  fix             frb all box/relax tri 0.0 couple none
  min_style       cg
  min_modify      line quadratic
  minimize        0.0 1.0e-3 10000 10000
WARNING: Energy due to 6 extra global DOFs will be included in minimizer energies
 (src/min.cpp:225)
Per MPI rank memory allocation (min/avg/max) = 5.023 | 5.023 | 5.023 Mbytes
   Step          Temp          PotEng           Lx             Ly             Lz            Pxx            Pyy            Pzz            Fmax          Fnorm     
       387  1.24505359758711e-08   -222.5796273305002    9.728205054275524    8.424877150998451    49.91257908525523 -0.06846982358325025  0.05932617775431045 4.437404426437302e-05 0.0001364040465677369 0.0003439267483349563
       388  1.24505359758711e-08   -222.5796273306286    9.728202775821529    8.424878860691397    49.91257909282906  0.09161943539842411 -0.07542067552886579 4.441911810609206e-05  0.00013650729096627 0.0003322506139434635
Loop time of 0.00294869 on 1 procs for 1 steps with 31 atoms

87.5% CPU use with 1 MPI tasks x no OpenMP threads

Minimization stats:
  Stopping criterion = force tolerance
  Energy initial, next-to-last, final = 
       -222.5796273305    -222.5796273305  -222.579627330629
  Force two-norm initial, final = 0.00044421814 0.00050427786
  Force max component initial, final = 0.00017482166 0.00023392874
  Final line search alpha, max atom move = 0.57201149 0.00013380993
  Iterations, force evaluations = 1 2

MPI task timing breakdown:
Section |  min time  |  avg time  |  max time  |%varavg| %total
---------------------------------------------------------------
Pair    | 0.0023875  | 0.0023875  | 0.0023875  |   0.0 | 80.97
Neigh   | 0          | 0          | 0          |   0.0 |  0.00
Comm    | 8.944e-06  | 8.944e-06  | 8.944e-06  |   0.0 |  0.30
Output  | 0          | 0          | 0          |   0.0 |  0.00
Modify  | 0          | 0          | 0          |   0.0 |  0.00
Other   |            | 0.0005523  |            |       | 18.73

Nlocal:             31 ave          31 max          31 min
Histogram: 1 0 0 0 0 0 0 0 0 0
Nghost:            441 ave         441 max         441 min
Histogram: 1 0 0 0 0 0 0 0 0 0
Neighs:              0 ave           0 max           0 min
Histogram: 1 0 0 0 0 0 0 0 0 0
FullNghs:         5406 ave        5406 max        5406 min
Histogram: 1 0 0 0 0 0 0 0 0 0

Total # of neighbors = 5406
Ave neighs/atom = 174.3871
Neighbor list builds = 0
Dangerous builds = 0

# Minimize the with fire
  unfix           frb
  min_style       fire
  minimize        0.0 1.0e-3 10000 10000
  Parameters for fire:
    dmax  delaystep dtgrow dtshrink alpha0 alphashrink tmax tmin   integrator   halfstepback   abcfire  
     0.1     20      1.1     0.5     0.25     0.99      10  0.02 eulerimplicit      yes          no     
Per MPI rank memory allocation (min/avg/max) = 3.898 | 3.898 | 3.898 Mbytes
   Step          Temp          PotEng           Lx             Ly             Lz            Pxx            Pyy            Pzz            Fmax          Fnorm     
       388                     0   -222.5796273306286    9.728202775821529    8.424878860691397    49.91257909282906  0.09161942085577889 -0.07542068571439958 4.440569075455594e-05 0.0001365072909662171 0.0003322506139558066
       389  1.143399114979544e-08    -222.579627330717    9.728202775821529    8.424878860691397    49.91257909282906  0.08937299939675181 -0.07321152198292002 4.444598034235313e-05 0.0001365680312530101 0.0003302355510484891
Loop time of 0.00126841 on 1 procs for 1 steps with 31 atoms

75.9% CPU use with 1 MPI tasks x no OpenMP threads

Minimization stats:
  Stopping criterion = force tolerance
  Energy initial, next-to-last, final = 
     -222.579627330629  -222.579627330629  -222.579627330717
  Force two-norm initial, final = 0.00033225061 0.00033023555
  Force max component initial, final = 0.00013650729 0.00013656803
  Final line search alpha, max atom move = 0 0
  Iterations, force evaluations = 1 2

MPI task timing breakdown:
Section |  min time  |  avg time  |  max time  |%varavg| %total
---------------------------------------------------------------
Pair    | 0.00082088 | 0.00082088 | 0.00082088 |   0.0 | 64.72
Neigh   | 0          | 0          | 0          |   0.0 |  0.00
Comm    | 7.659e-06  | 7.659e-06  | 7.659e-06  |   0.0 |  0.60
Output  | 0          | 0          | 0          |   0.0 |  0.00
Modify  | 0          | 0          | 0          |   0.0 |  0.00
Other   |            | 0.0004399  |            |       | 34.68

Nlocal:             31 ave          31 max          31 min
Histogram: 1 0 0 0 0 0 0 0 0 0
Nghost:            441 ave         441 max         441 min
Histogram: 1 0 0 0 0 0 0 0 0 0
Neighs:              0 ave           0 max           0 min
Histogram: 1 0 0 0 0 0 0 0 0 0
FullNghs:         5406 ave        5406 max        5406 min
Histogram: 1 0 0 0 0 0 0 0 0 0

Total # of neighbors = 5406
Ave neighs/atom = 174.3871
Neighbor list builds = 0
Dangerous builds = 0

next nr
jump ${simname}.in loopmin
jump AIREBO.in loopmin

# Minimize the with cg + box/relax
  fix             frb all box/relax tri 0.0 couple none
  min_style       cg
  min_modify      line quadratic
  minimize        0.0 1.0e-3 10000 10000
WARNING: Energy due to 6 extra global DOFs will be included in minimizer energies
 (src/min.cpp:225)
Per MPI rank memory allocation (min/avg/max) = 5.023 | 5.023 | 5.023 Mbytes
   Step          Temp          PotEng           Lx             Ly             Lz            Pxx            Pyy            Pzz            Fmax          Fnorm     
       389  1.143399114979544e-08    -222.579627330717    9.728202775821529    8.424878860691397    49.91257909282906  0.08937299932140483 -0.07321152208423878 4.444598034373344e-05 0.0001365680312529778 0.0003302355510183446
       390  1.143399114979544e-08   -222.5796273308517    9.728205102639247    8.424877209997184    49.91257909876425 -0.07172662500575781  0.05283055620947721 4.448065939019978e-05 0.0001366450486362786 0.0003413809184580805
Loop time of 0.00102381 on 1 procs for 1 steps with 31 atoms

82.7% CPU use with 1 MPI tasks x no OpenMP threads

Minimization stats:
  Stopping criterion = force tolerance
  Energy initial, next-to-last, final = 
     -222.579627330717  -222.579627330717  -222.579627330852
  Force two-norm initial, final = 0.00049749602 0.00044355509
  Force max component initial, final = 0.00022819294 0.00018313709
  Final line search alpha, max atom move = 0.43822565 8.0255373e-05
  Iterations, force evaluations = 1 2

MPI task timing breakdown:
Section |  min time  |  avg time  |  max time  |%varavg| %total
---------------------------------------------------------------
Pair    | 0.00073902 | 0.00073902 | 0.00073902 |   0.0 | 72.18
Neigh   | 0          | 0          | 0          |   0.0 |  0.00
Comm    | 6.618e-06  | 6.618e-06  | 6.618e-06  |   0.0 |  0.65
Output  | 0          | 0          | 0          |   0.0 |  0.00
Modify  | 0          | 0          | 0          |   0.0 |  0.00
Other   |            | 0.0002782  |            |       | 27.17

Nlocal:             31 ave          31 max          31 min
Histogram: 1 0 0 0 0 0 0 0 0 0
Nghost:            441 ave         441 max         441 min
Histogram: 1 0 0 0 0 0 0 0 0 0
Neighs:              0 ave           0 max           0 min
Histogram: 1 0 0 0 0 0 0 0 0 0
FullNghs:         5406 ave        5406 max        5406 min
Histogram: 1 0 0 0 0 0 0 0 0 0

Total # of neighbors = 5406
Ave neighs/atom = 174.3871
Neighbor list builds = 0
Dangerous builds = 0

# Minimize the with fire
  unfix           frb
  min_style       fire
  minimize        0.0 1.0e-3 10000 10000
  Parameters for fire:
    dmax  delaystep dtgrow dtshrink alpha0 alphashrink tmax tmin   integrator   halfstepback   abcfire  
     0.1     20      1.1     0.5     0.25     0.99      10  0.02 eulerimplicit      yes          no     
Per MPI rank memory allocation (min/avg/max) = 3.898 | 3.898 | 3.898 Mbytes
   Step          Temp          PotEng           Lx             Ly             Lz            Pxx            Pyy            Pzz            Fmax          Fnorm     
       390                     0   -222.5796273308516    9.728205102639247    8.424877209997184    49.91257909876425 -0.07172663752470408  0.05283054766062944 4.446722247340202e-05 0.0001366450486363883 0.0003413809184677561
       391  1.207104176480369e-08   -222.5796273309452    9.728205102639247    8.424877209997184    49.91257909876425 -0.06814311284600516  0.04928307139370847 4.450755243701944e-05 0.0001367058385142489 0.0003387635391660495
Loop time of 0.00144724 on 1 procs for 1 steps with 31 atoms

78.4% CPU use with 1 MPI tasks x no OpenMP threads

Minimization stats:
  Stopping criterion = force tolerance
  Energy initial, next-to-last, final = 
     -222.579627330852  -222.579627330852  -222.579627330945
  Force two-norm initial, final = 0.00034138092 0.00033876354
  Force max component initial, final = 0.00013664505 0.00013670584
  Final line search alpha, max atom move = 0 0
  Iterations, force evaluations = 1 2

MPI task timing breakdown:
Section |  min time  |  avg time  |  max time  |%varavg| %total
---------------------------------------------------------------
Pair    | 0.00088528 | 0.00088528 | 0.00088528 |   0.0 | 61.17
Neigh   | 0          | 0          | 0          |   0.0 |  0.00
Comm    | 7.043e-06  | 7.043e-06  | 7.043e-06  |   0.0 |  0.49
Output  | 0          | 0          | 0          |   0.0 |  0.00
Modify  | 0          | 0          | 0          |   0.0 |  0.00
Other   |            | 0.0005549  |            |       | 38.34

Nlocal:             31 ave          31 max          31 min
Histogram: 1 0 0 0 0 0 0 0 0 0
Nghost:            441 ave         441 max         441 min
Histogram: 1 0 0 0 0 0 0 0 0 0
Neighs:              0 ave           0 max           0 min
Histogram: 1 0 0 0 0 0 0 0 0 0
FullNghs:         5406 ave        5406 max        5406 min
Histogram: 1 0 0 0 0 0 0 0 0 0

Total # of neighbors = 5406
Ave neighs/atom = 174.3871
Neighbor list builds = 0
Dangerous builds = 0

next nr
jump ${simname}.in loopmin
jump AIREBO.in loopmin

# Minimize the with cg + box/relax
  fix             frb all box/relax tri 0.0 couple none
  min_style       cg
  min_modify      line quadratic
  minimize        0.0 1.0e-3 10000 10000
WARNING: Energy due to 6 extra global DOFs will be included in minimizer energies
 (src/min.cpp:225)
Per MPI rank memory allocation (min/avg/max) = 5.023 | 5.023 | 5.023 Mbytes
   Step          Temp          PotEng           Lx             Ly             Lz            Pxx            Pyy            Pzz            Fmax          Fnorm     
       391  1.207104176480369e-08   -222.5796273309451    9.728205102639247    8.424877209997184    49.91257909876425 -0.06814311286985063   0.0492830714478177 4.450755244184453e-05 0.0001367058385130963 0.0003387635391902918
       392  1.207104176480369e-08   -222.5796273310681    9.728202727566265    8.424878697587861    49.91257910672098   0.1013137834376356 -0.06541639539751522 4.455496752593771e-05 0.0001368144510377792 0.0003279725247305166
Loop time of 0.00106088 on 1 procs for 1 steps with 31 atoms

65.1% CPU use with 1 MPI tasks x no OpenMP threads

Minimization stats:
  Stopping criterion = force tolerance
  Energy initial, next-to-last, final = 
     -222.579627330945  -222.579627330945  -222.579627331068
  Force two-norm initial, final = 0.00042983942 0.00051099239
  Force max component initial, final = 0.00017398748 0.00025868098
  Final line search alpha, max atom move = 0.57475398 0.00014867793
  Iterations, force evaluations = 1 2

MPI task timing breakdown:
Section |  min time  |  avg time  |  max time  |%varavg| %total
---------------------------------------------------------------
Pair    | 0.00059233 | 0.00059233 | 0.00059233 |   0.0 | 55.83
Neigh   | 0          | 0          | 0          |   0.0 |  0.00
Comm    | 5.117e-06  | 5.117e-06  | 5.117e-06  |   0.0 |  0.48
Output  | 0          | 0          | 0          |   0.0 |  0.00
Modify  | 0          | 0          | 0          |   0.0 |  0.00
Other   |            | 0.0004634  |            |       | 43.68

Nlocal:             31 ave          31 max          31 min
Histogram: 1 0 0 0 0 0 0 0 0 0
Nghost:            441 ave         441 max         441 min
Histogram: 1 0 0 0 0 0 0 0 0 0
Neighs:              0 ave           0 max           0 min
Histogram: 1 0 0 0 0 0 0 0 0 0
FullNghs:         5406 ave        5406 max        5406 min
Histogram: 1 0 0 0 0 0 0 0 0 0

Total # of neighbors = 5406
Ave neighs/atom = 174.3871
Neighbor list builds = 0
Dangerous builds = 0

# Minimize the with fire
  unfix           frb
  min_style       fire
  minimize        0.0 1.0e-3 10000 10000
  Parameters for fire:
    dmax  delaystep dtgrow dtshrink alpha0 alphashrink tmax tmin   integrator   halfstepback   abcfire  
     0.1     20      1.1     0.5     0.25     0.99      10  0.02 eulerimplicit      yes          no     
Per MPI rank memory allocation (min/avg/max) = 3.898 | 3.898 | 3.898 Mbytes
   Step          Temp          PotEng           Lx             Ly             Lz            Pxx            Pyy            Pzz            Fmax          Fnorm     
       392                     0   -222.5796273310681    9.728202727566265    8.424878697587861    49.91257910672098    0.101313769779723 -0.06541640493656505 4.454152240664308e-05 0.0001368144510372009 0.0003279725247299935
       393  1.114143660780437e-08   -222.5796273311545    9.728202727566265    8.424878697587861    49.91257910672098  0.09908257774440557 -0.06326316730187892 4.458186456437713e-05 0.0001368750740538615 0.0003259227200541384
Loop time of 0.00089639 on 1 procs for 1 steps with 31 atoms

75.5% CPU use with 1 MPI tasks x no OpenMP threads

Minimization stats:
  Stopping criterion = force tolerance
  Energy initial, next-to-last, final = 
     -222.579627331068  -222.579627331068  -222.579627331155
  Force two-norm initial, final = 0.00032797252 0.00032592272
  Force max component initial, final = 0.00013681445 0.00013687507
  Final line search alpha, max atom move = 0 0
  Iterations, force evaluations = 1 2

MPI task timing breakdown:
Section |  min time  |  avg time  |  max time  |%varavg| %total
---------------------------------------------------------------
Pair    | 0.00059534 | 0.00059534 | 0.00059534 |   0.0 | 66.42
Neigh   | 0          | 0          | 0          |   0.0 |  0.00
Comm    | 5.196e-06  | 5.196e-06  | 5.196e-06  |   0.0 |  0.58
Output  | 0          | 0          | 0          |   0.0 |  0.00
Modify  | 0          | 0          | 0          |   0.0 |  0.00
Other   |            | 0.0002958  |            |       | 33.00

Nlocal:             31 ave          31 max          31 min
Histogram: 1 0 0 0 0 0 0 0 0 0
Nghost:            441 ave         441 max         441 min
Histogram: 1 0 0 0 0 0 0 0 0 0
Neighs:              0 ave           0 max           0 min
Histogram: 1 0 0 0 0 0 0 0 0 0
FullNghs:         5406 ave        5406 max        5406 min
Histogram: 1 0 0 0 0 0 0 0 0 0

Total # of neighbors = 5406
Ave neighs/atom = 174.3871
Neighbor list builds = 0
Dangerous builds = 0

next nr
jump ${simname}.in loopmin
jump AIREBO.in loopmin

# Minimize the with cg + box/relax
  fix             frb all box/relax tri 0.0 couple none
  min_style       cg
  min_modify      line quadratic
  minimize        0.0 1.0e-3 10000 10000
WARNING: Energy due to 6 extra global DOFs will be included in minimizer energies
 (src/min.cpp:225)
Per MPI rank memory allocation (min/avg/max) = 5.023 | 5.023 | 5.023 Mbytes
   Step          Temp          PotEng           Lx             Ly             Lz            Pxx            Pyy            Pzz            Fmax          Fnorm     
       393  1.114143660780437e-08   -222.5796273311546    9.728202727566265    8.424878697587861    49.91257910672098  0.09908257776363295 -0.06326316737157613 4.458186455674501e-05 0.0001368750740463155 0.0003259227200874157
       394  1.114143660780437e-08   -222.5796273312852    9.728205179752456    8.424877341654858    49.91257911238026 -0.07409078471070409  0.03605379970535983 4.461465507537725e-05 0.0001369470982364198 0.0003361701316233392
Loop time of 0.000794955 on 1 procs for 1 steps with 31 atoms

83.9% CPU use with 1 MPI tasks x no OpenMP threads

Minimization stats:
  Stopping criterion = force tolerance
  Energy initial, next-to-last, final = 
     -222.579627331155  -222.579627331155  -222.579627331285
  Force two-norm initial, final = 0.00050395457 0.00042953423
  Force max component initial, final = 0.00025298407 0.00018917342
  Final line search alpha, max atom move = 0.39528181 7.4776813e-05
  Iterations, force evaluations = 1 2

MPI task timing breakdown:
Section |  min time  |  avg time  |  max time  |%varavg| %total
---------------------------------------------------------------
Pair    | 0.00056465 | 0.00056465 | 0.00056465 |   0.0 | 71.03
Neigh   | 0          | 0          | 0          |   0.0 |  0.00
Comm    | 5.036e-06  | 5.036e-06  | 5.036e-06  |   0.0 |  0.63
Output  | 0          | 0          | 0          |   0.0 |  0.00
Modify  | 0          | 0          | 0          |   0.0 |  0.00
Other   |            | 0.0002253  |            |       | 28.34

Nlocal:             31 ave          31 max          31 min
Histogram: 1 0 0 0 0 0 0 0 0 0
Nghost:            441 ave         441 max         441 min
Histogram: 1 0 0 0 0 0 0 0 0 0
Neighs:              0 ave           0 max           0 min
Histogram: 1 0 0 0 0 0 0 0 0 0
FullNghs:         5406 ave        5406 max        5406 min
Histogram: 1 0 0 0 0 0 0 0 0 0

Total # of neighbors = 5406
Ave neighs/atom = 174.3871
Neighbor list builds = 0
Dangerous builds = 0

# Minimize the with fire
  unfix           frb
  min_style       fire
  minimize        0.0 1.0e-3 10000 10000
  Parameters for fire:
    dmax  delaystep dtgrow dtshrink alpha0 alphashrink tmax tmin   integrator   halfstepback   abcfire  
     0.1     20      1.1     0.5     0.25     0.99      10  0.02 eulerimplicit      yes          no     
Per MPI rank memory allocation (min/avg/max) = 3.898 | 3.898 | 3.898 Mbytes
   Step          Temp          PotEng           Lx             Ly             Lz            Pxx            Pyy            Pzz            Fmax          Fnorm     
       394                     0   -222.5796273312853    9.728205179752456    8.424877341654858    49.91257911238026 -0.07409079700575491  0.03605379153090773 4.460119988385402e-05 0.0001369470982402419 0.0003361701315836901
       395  1.170535301174315e-08   -222.5796273313763    9.728205179752456    8.424877341654858    49.91257911238026 -0.07074110083801023    0.032780571998722 4.464158618314029e-05 0.0001370077987054461 0.0003337142347552389
Loop time of 0.00096736 on 1 procs for 1 steps with 31 atoms

82.7% CPU use with 1 MPI tasks x no OpenMP threads

Minimization stats:
  Stopping criterion = force tolerance
  Energy initial, next-to-last, final = 
     -222.579627331285  -222.579627331285  -222.579627331376
  Force two-norm initial, final = 0.00033617013 0.00033371423
  Force max component initial, final = 0.0001369471 0.0001370078
  Final line search alpha, max atom move = 0 0
  Iterations, force evaluations = 1 2

MPI task timing breakdown:
Section |  min time  |  avg time  |  max time  |%varavg| %total
---------------------------------------------------------------
Pair    | 0.00069866 | 0.00069866 | 0.00069866 |   0.0 | 72.22
Neigh   | 0          | 0          | 0          |   0.0 |  0.00
Comm    | 6.968e-06  | 6.968e-06  | 6.968e-06  |   0.0 |  0.72
Output  | 0          | 0          | 0          |   0.0 |  0.00
Modify  | 0          | 0          | 0          |   0.0 |  0.00
Other   |            | 0.0002617  |            |       | 27.06

Nlocal:             31 ave          31 max          31 min
Histogram: 1 0 0 0 0 0 0 0 0 0
Nghost:            441 ave         441 max         441 min
Histogram: 1 0 0 0 0 0 0 0 0 0
Neighs:              0 ave           0 max           0 min
Histogram: 1 0 0 0 0 0 0 0 0 0
FullNghs:         5406 ave        5406 max        5406 min
Histogram: 1 0 0 0 0 0 0 0 0 0

Total # of neighbors = 5406
Ave neighs/atom = 174.3871
Neighbor list builds = 0
Dangerous builds = 0

next nr
jump ${simname}.in loopmin
jump AIREBO.in loopmin

# Minimize the with cg + box/relax
  fix             frb all box/relax tri 0.0 couple none
  min_style       cg
  min_modify      line quadratic
  minimize        0.0 1.0e-3 10000 10000
WARNING: Energy due to 6 extra global DOFs will be included in minimizer energies
 (src/min.cpp:225)
Per MPI rank memory allocation (min/avg/max) = 5.023 | 5.023 | 5.023 Mbytes
   Step          Temp          PotEng           Lx             Ly             Lz            Pxx            Pyy            Pzz            Fmax          Fnorm     
       395  1.170535301174315e-08   -222.5796273313762    9.728205179752456    8.424877341654858    49.91257911238026 -0.07074110098327142  0.03278057209029185 4.464158618776418e-05 0.0001370077987127242 0.0003337142347672485
       396  1.170535301174315e-08   -222.5796273314954    9.728202636822983    8.424878362147071    49.91257912061118   0.1155603408810722 -0.03984520321809947 4.469084852357917e-05  0.00013712100572225 0.0003235088818927212
Loop time of 0.000844292 on 1 procs for 1 steps with 31 atoms

81.0% CPU use with 1 MPI tasks x no OpenMP threads

Minimization stats:
  Stopping criterion = force tolerance
  Energy initial, next-to-last, final = 
     -222.579627331376  -222.579627331376  -222.579627331495
  Force two-norm initial, final = 0.00041696319 0.00051806029
  Force max component initial, final = 0.00018062084 0.00029505622
  Final line search alpha, max atom move = 0.55364597 0.00016335669
  Iterations, force evaluations = 1 2

MPI task timing breakdown:
Section |  min time  |  avg time  |  max time  |%varavg| %total
---------------------------------------------------------------
Pair    | 0.00057586 | 0.00057586 | 0.00057586 |   0.0 | 68.21
Neigh   | 0          | 0          | 0          |   0.0 |  0.00
Comm    | 4.94e-06   | 4.94e-06   | 4.94e-06   |   0.0 |  0.59
Output  | 0          | 0          | 0          |   0.0 |  0.00
Modify  | 0          | 0          | 0          |   0.0 |  0.00
Other   |            | 0.0002635  |            |       | 31.21

Nlocal:             31 ave          31 max          31 min
Histogram: 1 0 0 0 0 0 0 0 0 0
Nghost:            441 ave         441 max         441 min
Histogram: 1 0 0 0 0 0 0 0 0 0
Neighs:              0 ave           0 max           0 min
Histogram: 1 0 0 0 0 0 0 0 0 0
FullNghs:         5406 ave        5406 max        5406 min
Histogram: 1 0 0 0 0 0 0 0 0 0

Total # of neighbors = 5406
Ave neighs/atom = 174.3871
Neighbor list builds = 0
Dangerous builds = 0

# Minimize the with fire
  unfix           frb
  min_style       fire
  minimize        0.0 1.0e-3 10000 10000
  Parameters for fire:
    dmax  delaystep dtgrow dtshrink alpha0 alphashrink tmax tmin   integrator   halfstepback   abcfire  
     0.1     20      1.1     0.5     0.25     0.99      10  0.02 eulerimplicit      yes          no     
Per MPI rank memory allocation (min/avg/max) = 3.898 | 3.898 | 3.898 Mbytes
   Step          Temp          PotEng           Lx             Ly             Lz            Pxx            Pyy            Pzz            Fmax          Fnorm     
       396                     0   -222.5796273314955    9.728202636822983    8.424878362147071    49.91257912061118   0.1155603277378686 -0.03984521213650871 4.467738531524621e-05 0.0001371210057240634 0.0003235088818804756
       397  1.084023469333474e-08   -222.5796273315792    9.728202636822983    8.424878362147071    49.91257912061118   0.1135348336466602 -0.03797994746049708 4.471777893415822e-05 0.0001371815012079589 0.0003215129684952024
Loop time of 0.000843645 on 1 procs for 1 steps with 31 atoms

77.5% CPU use with 1 MPI tasks x no OpenMP threads

Minimization stats:
  Stopping criterion = force tolerance
  Energy initial, next-to-last, final = 
     -222.579627331496  -222.579627331496  -222.579627331579
  Force two-norm initial, final = 0.00032350888 0.00032151297
  Force max component initial, final = 0.00013712101 0.0001371815
  Final line search alpha, max atom move = 0 0
  Iterations, force evaluations = 1 2

MPI task timing breakdown:
Section |  min time  |  avg time  |  max time  |%varavg| %total
---------------------------------------------------------------
Pair    | 0.00056776 | 0.00056776 | 0.00056776 |   0.0 | 67.30
Neigh   | 0          | 0          | 0          |   0.0 |  0.00
Comm    | 4.94e-06   | 4.94e-06   | 4.94e-06   |   0.0 |  0.59
Output  | 0          | 0          | 0          |   0.0 |  0.00
Modify  | 0          | 0          | 0          |   0.0 |  0.00
Other   |            | 0.0002709  |            |       | 32.12

Nlocal:             31 ave          31 max          31 min
Histogram: 1 0 0 0 0 0 0 0 0 0
Nghost:            441 ave         441 max         441 min
Histogram: 1 0 0 0 0 0 0 0 0 0
Neighs:              0 ave           0 max           0 min
Histogram: 1 0 0 0 0 0 0 0 0 0
FullNghs:         5406 ave        5406 max        5406 min
Histogram: 1 0 0 0 0 0 0 0 0 0

Total # of neighbors = 5406
Ave neighs/atom = 174.3871
Neighbor list builds = 0
Dangerous builds = 0

next nr
jump ${simname}.in loopmin
jump AIREBO.in loopmin

# Minimize the with cg + box/relax
  fix             frb all box/relax tri 0.0 couple none
  min_style       cg
  min_modify      line quadratic
  minimize        0.0 1.0e-3 10000 10000
WARNING: Energy due to 6 extra global DOFs will be included in minimizer energies
 (src/min.cpp:225)
Per MPI rank memory allocation (min/avg/max) = 5.023 | 5.023 | 5.023 Mbytes
   Step          Temp          PotEng           Lx             Ly             Lz            Pxx            Pyy            Pzz            Fmax          Fnorm     
       397  1.084023469333474e-08   -222.5796273315792    9.728202636822983    8.424878362147071    49.91257912061118   0.1135348335916787 -0.03797994733792561 4.471777893482772e-05 0.0001371815012091049 0.0003215129684793135
       398  1.084023469333474e-08   -222.5796273317067    9.728205260357329    8.424877602095345    49.91257912591128 -0.07780763867579735 0.007910284816244357 4.474802909358612e-05 0.0001372466926820885 0.000330592759302251
Loop time of 0.000875984 on 1 procs for 1 steps with 31 atoms

79.8% CPU use with 1 MPI tasks x no OpenMP threads

Minimization stats:
  Stopping criterion = force tolerance
  Energy initial, next-to-last, final = 
     -222.579627331579  -222.579627331579  -222.579627331707
  Force two-norm initial, final = 0.00051146981 0.00041738583
  Force max component initial, final = 0.00028988449 0.00019866354
  Final line search alpha, max atom move = 0.34496498 6.8531964e-05
  Iterations, force evaluations = 1 2

MPI task timing breakdown:
Section |  min time  |  avg time  |  max time  |%varavg| %total
---------------------------------------------------------------
Pair    | 0.00058592 | 0.00058592 | 0.00058592 |   0.0 | 66.89
Neigh   | 0          | 0          | 0          |   0.0 |  0.00
Comm    | 5.839e-06  | 5.839e-06  | 5.839e-06  |   0.0 |  0.67
Output  | 0          | 0          | 0          |   0.0 |  0.00
Modify  | 0          | 0          | 0          |   0.0 |  0.00
Other   |            | 0.0002842  |            |       | 32.45

Nlocal:             31 ave          31 max          31 min
Histogram: 1 0 0 0 0 0 0 0 0 0
Nghost:            441 ave         441 max         441 min
Histogram: 1 0 0 0 0 0 0 0 0 0
Neighs:              0 ave           0 max           0 min
Histogram: 1 0 0 0 0 0 0 0 0 0
FullNghs:         5406 ave        5406 max        5406 min
Histogram: 1 0 0 0 0 0 0 0 0 0

Total # of neighbors = 5406
Ave neighs/atom = 174.3871
Neighbor list builds = 0
Dangerous builds = 0

# Minimize the with fire
  unfix           frb
  min_style       fire
  minimize        0.0 1.0e-3 10000 10000
  Parameters for fire:
    dmax  delaystep dtgrow dtshrink alpha0 alphashrink tmax tmin   integrator   halfstepback   abcfire  
     0.1     20      1.1     0.5     0.25     0.99      10  0.02 eulerimplicit      yes          no     
Per MPI rank memory allocation (min/avg/max) = 3.898 | 3.898 | 3.898 Mbytes
   Step          Temp          PotEng           Lx             Ly             Lz            Pxx            Pyy            Pzz            Fmax          Fnorm     
       398                     0   -222.5796273317068    9.728205260357329    8.424877602095345    49.91257912591128 -0.07780765024629538 0.007910277016510692 4.47345553387762e-05 0.0001372466926841665 0.0003305927593377556
       399  1.132016982972113e-08   -222.5796273317947    9.728205260357329    8.424877602095345    49.91257912591128 -0.07488221157016865 0.005128911680358625 4.477499980036072e-05 0.0001373073136594592  0.00032837990217607
Loop time of 0.000797292 on 1 procs for 1 steps with 31 atoms

80.9% CPU use with 1 MPI tasks x no OpenMP threads

Minimization stats:
  Stopping criterion = force tolerance
  Energy initial, next-to-last, final = 
     -222.579627331707  -222.579627331707  -222.579627331795
  Force two-norm initial, final = 0.00033059276 0.0003283799
  Force max component initial, final = 0.00013724669 0.00013730731
  Final line search alpha, max atom move = 0 0
  Iterations, force evaluations = 1 2

MPI task timing breakdown:
Section |  min time  |  avg time  |  max time  |%varavg| %total
---------------------------------------------------------------
Pair    | 0.00055776 | 0.00055776 | 0.00055776 |   0.0 | 69.96
Neigh   | 0          | 0          | 0          |   0.0 |  0.00
Comm    | 4.741e-06  | 4.741e-06  | 4.741e-06  |   0.0 |  0.59
Output  | 0          | 0          | 0          |   0.0 |  0.00
Modify  | 0          | 0          | 0          |   0.0 |  0.00
Other   |            | 0.0002348  |            |       | 29.45

Nlocal:             31 ave          31 max          31 min
Histogram: 1 0 0 0 0 0 0 0 0 0
Nghost:            441 ave         441 max         441 min
Histogram: 1 0 0 0 0 0 0 0 0 0
Neighs:              0 ave           0 max           0 min
Histogram: 1 0 0 0 0 0 0 0 0 0
FullNghs:         5406 ave        5406 max        5406 min
Histogram: 1 0 0 0 0 0 0 0 0 0

Total # of neighbors = 5406
Ave neighs/atom = 174.3871
Neighbor list builds = 0
Dangerous builds = 0

next nr
jump ${simname}.in loopmin
jump AIREBO.in loopmin

# Minimize the with cg + box/relax
  fix             frb all box/relax tri 0.0 couple none
  min_style       cg
  min_modify      line quadratic
  minimize        0.0 1.0e-3 10000 10000
WARNING: Energy due to 6 extra global DOFs will be included in minimizer energies
 (src/min.cpp:225)
Per MPI rank memory allocation (min/avg/max) = 5.023 | 5.023 | 5.023 Mbytes
   Step          Temp          PotEng           Lx             Ly             Lz            Pxx            Pyy            Pzz            Fmax          Fnorm     
       399  1.132016982972113e-08   -222.5796273317946    9.728205260357329    8.424877602095345    49.91257912591128 -0.07488221143357418 0.005128911898071404 4.477499980070322e-05 0.000137307313657148 0.0003283799021375685
       400  1.132016982972113e-08   -222.5796273319049    9.728202607164112    8.424877759473899    49.91257913404843   0.1271808971247497 0.008958576382712396 4.482410458259815e-05 0.0001374209644929905 0.000318502672831132
Loop time of 0.000889296 on 1 procs for 1 steps with 31 atoms

80.0% CPU use with 1 MPI tasks x no OpenMP threads

Minimization stats:
  Stopping criterion = force tolerance
  Energy initial, next-to-last, final = 
     -222.579627331795  -222.579627331795  -222.579627331905
  Force two-norm initial, final = 0.0004068648 0.00052229876
  Force max component initial, final = 0.0001911942 0.00032472657
  Final line search alpha, max atom move = 0.52302842 0.00016984123
  Iterations, force evaluations = 1 2

MPI task timing breakdown:
Section |  min time  |  avg time  |  max time  |%varavg| %total
---------------------------------------------------------------
Pair    | 0.00060384 | 0.00060384 | 0.00060384 |   0.0 | 67.90
Neigh   | 0          | 0          | 0          |   0.0 |  0.00
Comm    | 5.157e-06  | 5.157e-06  | 5.157e-06  |   0.0 |  0.58
Output  | 0          | 0          | 0          |   0.0 |  0.00
Modify  | 0          | 0          | 0          |   0.0 |  0.00
Other   |            | 0.0002803  |            |       | 31.52

Nlocal:             31 ave          31 max          31 min
Histogram: 1 0 0 0 0 0 0 0 0 0
Nghost:            441 ave         441 max         441 min
Histogram: 1 0 0 0 0 0 0 0 0 0
Neighs:              0 ave           0 max           0 min
Histogram: 1 0 0 0 0 0 0 0 0 0
FullNghs:         5406 ave        5406 max        5406 min
Histogram: 1 0 0 0 0 0 0 0 0 0

Total # of neighbors = 5406
Ave neighs/atom = 174.3871
Neighbor list builds = 0
Dangerous builds = 0

# Minimize the with fire
  unfix           frb
  min_style       fire
  minimize        0.0 1.0e-3 10000 10000
  Parameters for fire:
    dmax  delaystep dtgrow dtshrink alpha0 alphashrink tmax tmin   integrator   halfstepback   abcfire  
     0.1     20      1.1     0.5     0.25     0.99      10  0.02 eulerimplicit      yes          no     
Per MPI rank memory allocation (min/avg/max) = 3.898 | 3.898 | 3.898 Mbytes
   Step          Temp          PotEng           Lx             Ly             Lz            Pxx            Pyy            Pzz            Fmax          Fnorm     
       400                     0   -222.5796273319049    9.728202607164112    8.424877759473899    49.91257913404843   0.1271808843351199 0.008958568139462462 4.481062310736162e-05 0.0001374209644929332 0.0003185026727993018
       401  1.050733139533173e-08   -222.5796273319868    9.728202607164112    8.424877759473899    49.91257913404843   0.1258371485564408  0.01001747689779051 4.485106647510741e-05 0.0001374813271792169 0.0003168195197758122
Loop time of 0.000800778 on 1 procs for 1 steps with 31 atoms

0.0% CPU use with 1 MPI tasks x no OpenMP threads

Minimization stats:
  Stopping criterion = force tolerance
  Energy initial, next-to-last, final = 
     -222.579627331905  -222.579627331905  -222.579627331987
  Force two-norm initial, final = 0.00031850267 0.00031681952
  Force max component initial, final = 0.00013742096 0.00013748133
  Final line search alpha, max atom move = 0 0
  Iterations, force evaluations = 1 2

MPI task timing breakdown:
Section |  min time  |  avg time  |  max time  |%varavg| %total
---------------------------------------------------------------
Pair    | 0.00056638 | 0.00056638 | 0.00056638 |   0.0 | 70.73
Neigh   | 0          | 0          | 0          |   0.0 |  0.00
Comm    | 5.996e-06  | 5.996e-06  | 5.996e-06  |   0.0 |  0.75
[...]
Histogram: 1 0 0 0 0 0 0 0 0 0
FullNghs:         5406 ave        5406 max        5406 min
Histogram: 1 0 0 0 0 0 0 0 0 0

Total # of neighbors = 5406
Ave neighs/atom = 174.3871
Neighbor list builds = 0
Dangerous builds = 0

# Minimize the with fire
  unfix           frb
  min_style       fire
  minimize        0.0 1.0e-3 10000 10000
  Parameters for fire:
    dmax  delaystep dtgrow dtshrink alpha0 alphashrink tmax tmin   integrator   halfstepback   abcfire  
     0.1     20      1.1     0.5     0.25     0.99      10  0.02 eulerimplicit      yes          no     
Per MPI rank memory allocation (min/avg/max) = 3.898 | 3.898 | 3.898 Mbytes
   Step          Temp          PotEng           Lx             Ly             Lz            Pxx            Pyy            Pzz            Fmax          Fnorm     
       566                     0   -222.5796273443418    9.728206640231495    8.424876177250091    49.91257980317739 -0.02598242845159193 -0.02649158077238499 5.09425835449929e-05 0.0001503042794038833 0.0002344461182613941
       567  5.693146512604481e-09    -222.579627344386    9.728206640231495    8.424876177250091    49.91257980317739  -0.0255368629414896 -0.02676449088219152  5.0986261828049e-05 0.0001503617570456107 0.0002341325275644848
Loop time of 0.000835637 on 1 procs for 1 steps with 31 atoms

33.7% CPU use with 1 MPI tasks x no OpenMP threads

Minimization stats:
  Stopping criterion = force tolerance
  Energy initial, next-to-last, final = 
     -222.579627344342  -222.579627344342  -222.579627344386
  Force two-norm initial, final = 0.00023444612 0.00023413253
  Force max component initial, final = 0.00015030428 0.00015036176
  Final line search alpha, max atom move = 0 0
  Iterations, force evaluations = 1 2

MPI task timing breakdown:
Section |  min time  |  avg time  |  max time  |%varavg| %total
---------------------------------------------------------------
Pair    | 0.0006028  | 0.0006028  | 0.0006028  |   0.0 | 72.14
Neigh   | 0          | 0          | 0          |   0.0 |  0.00
Comm    | 4.853e-06  | 4.853e-06  | 4.853e-06  |   0.0 |  0.58
Output  | 0          | 0          | 0          |   0.0 |  0.00
Modify  | 0          | 0          | 0          |   0.0 |  0.00
Other   |            | 0.000228   |            |       | 27.28

Nlocal:             31 ave          31 max          31 min
Histogram: 1 0 0 0 0 0 0 0 0 0
Nghost:            441 ave         441 max         441 min
Histogram: 1 0 0 0 0 0 0 0 0 0
Neighs:              0 ave           0 max           0 min
Histogram: 1 0 0 0 0 0 0 0 0 0
FullNghs:         5406 ave        5406 max        5406 min
Histogram: 1 0 0 0 0 0 0 0 0 0

Total # of neighbors = 5406
Ave neighs/atom = 174.3871
Neighbor list builds = 0
Dangerous builds = 0

next nr
jump ${simname}.in loopmin
jump AIREBO.in loopmin

# Minimize the with cg + box/relax
  fix             frb all box/relax tri 0.0 couple none
  min_style       cg
  min_modify      line quadratic
  minimize        0.0 1.0e-3 10000 10000
WARNING: Energy due to 6 extra global DOFs will be included in minimizer energies
 (src/min.cpp:225)
Per MPI rank memory allocation (min/avg/max) = 5.023 | 5.023 | 5.023 Mbytes
   Step          Temp          PotEng           Lx             Ly             Lz            Pxx            Pyy            Pzz            Fmax          Fnorm     
       567  5.693146512604481e-09    -222.579627344386    9.728206640231495    8.424876177250091    49.91257980317739 -0.02553686292507292 -0.02676449088456689 5.098626182811877e-05 0.0001503617570428713 0.0002341325275644663
       568  5.693146512604481e-09   -222.5796273444752    9.728204747446451    8.424874459248883    49.91257982256125   0.1343030534142897   0.1365777558152895 5.109640732032353e-05 0.000150583863235482 0.0002344844682307681
Loop time of 0.000796159 on 1 procs for 1 steps with 31 atoms

35.4% CPU use with 1 MPI tasks x no OpenMP threads

Minimization stats:
  Stopping criterion = force tolerance
  Energy initial, next-to-last, final = 
     -222.579627344386  -222.579627344386  -222.579627344475
  Force two-norm initial, final = 0.00025485271 0.00057956644
  Force max component initial, final = 0.00015036176 0.0003487192
  Final line search alpha, max atom move = 1 0.0003487192
  Iterations, force evaluations = 1 2

MPI task timing breakdown:
Section |  min time  |  avg time  |  max time  |%varavg| %total
---------------------------------------------------------------
Pair    | 0.00058983 | 0.00058983 | 0.00058983 |   0.0 | 74.08
Neigh   | 0          | 0          | 0          |   0.0 |  0.00
Comm    | 5.91e-06   | 5.91e-06   | 5.91e-06   |   0.0 |  0.74
Output  | 0          | 0          | 0          |   0.0 |  0.00
Modify  | 0          | 0          | 0          |   0.0 |  0.00
Other   |            | 0.0002004  |            |       | 25.17

Nlocal:             31 ave          31 max          31 min
Histogram: 1 0 0 0 0 0 0 0 0 0
Nghost:            441 ave         441 max         441 min
Histogram: 1 0 0 0 0 0 0 0 0 0
Neighs:              0 ave           0 max           0 min
Histogram: 1 0 0 0 0 0 0 0 0 0
FullNghs:         5406 ave        5406 max        5406 min
Histogram: 1 0 0 0 0 0 0 0 0 0

Total # of neighbors = 5406
Ave neighs/atom = 174.3871
Neighbor list builds = 0
Dangerous builds = 0

# Minimize the with fire
  unfix           frb
  min_style       fire
  minimize        0.0 1.0e-3 10000 10000
  Parameters for fire:
    dmax  delaystep dtgrow dtshrink alpha0 alphashrink tmax tmin   integrator   halfstepback   abcfire  
     0.1     20      1.1     0.5     0.25     0.99      10  0.02 eulerimplicit      yes          no     
Per MPI rank memory allocation (min/avg/max) = 3.898 | 3.898 | 3.898 Mbytes
   Step          Temp          PotEng           Lx             Ly             Lz            Pxx            Pyy            Pzz            Fmax          Fnorm     
       568                     0   -222.5796273444752    9.728204747446451    8.424874459248883    49.91257982256125   0.1343030517777574   0.1365777547552167 5.108185080218734e-05 0.0001505838632332474 0.0002344844682183476
       569  5.695009198744961e-09   -222.5796273445194    9.728204747446451    8.424874459248883    49.91257982256125   0.1344577191169027   0.1359181193586818 5.112557018043145e-05 0.0001506410404791556 0.0002338092883481865
Loop time of 0.00113207 on 1 procs for 1 steps with 31 atoms

0.0% CPU use with 1 MPI tasks x no OpenMP threads

Minimization stats:
  Stopping criterion = force tolerance
  Energy initial, next-to-last, final = 
     -222.579627344475  -222.579627344475  -222.579627344519
  Force two-norm initial, final = 0.00023448447 0.00023380929
  Force max component initial, final = 0.00015058386 0.00015064104
  Final line search alpha, max atom move = 0 0
  Iterations, force evaluations = 1 2

MPI task timing breakdown:
Section |  min time  |  avg time  |  max time  |%varavg| %total
---------------------------------------------------------------
Pair    | 0.0008123  | 0.0008123  | 0.0008123  |   0.0 | 71.75
Neigh   | 0          | 0          | 0          |   0.0 |  0.00
Comm    | 8.134e-06  | 8.134e-06  | 8.134e-06  |   0.0 |  0.72
Output  | 0          | 0          | 0          |   0.0 |  0.00
Modify  | 0          | 0          | 0          |   0.0 |  0.00
Other   |            | 0.0003116  |            |       | 27.53

Nlocal:             31 ave          31 max          31 min
Histogram: 1 0 0 0 0 0 0 0 0 0
Nghost:            441 ave         441 max         441 min
Histogram: 1 0 0 0 0 0 0 0 0 0
Neighs:              0 ave           0 max           0 min
Histogram: 1 0 0 0 0 0 0 0 0 0
FullNghs:         5406 ave        5406 max        5406 min
Histogram: 1 0 0 0 0 0 0 0 0 0

Total # of neighbors = 5406
Ave neighs/atom = 174.3871
Neighbor list builds = 0
Dangerous builds = 0

next nr
jump ${simname}.in loopmin
jump AIREBO.in loopmin

# Minimize the with cg + box/relax
  fix             frb all box/relax tri 0.0 couple none
  min_style       cg
  min_modify      line quadratic
  minimize        0.0 1.0e-3 10000 10000
WARNING: Energy due to 6 extra global DOFs will be included in minimizer energies
 (src/min.cpp:225)
Per MPI rank memory allocation (min/avg/max) = 5.023 | 5.023 | 5.023 Mbytes
   Step          Temp          PotEng           Lx             Ly             Lz            Pxx            Pyy            Pzz            Fmax          Fnorm     
       569  5.695009198744961e-09   -222.5796273445193    9.728204747446451    8.424874459248883    49.91257982256125   0.1344577193125867   0.1359181193074024 5.112557016907763e-05 0.0001506410404775523 0.0002338092883618857
       570  5.695009198744961e-09   -222.5796273446238    9.728206670202402    8.424876142490724    49.91257982631124  -0.0256011818331003 -0.02608756237765782 5.114455066104403e-05 0.0001506732870048991 0.0002336889674010835
Loop time of 0.00096637 on 1 procs for 1 steps with 31 atoms

0.0% CPU use with 1 MPI tasks x no OpenMP threads

Minimization stats:
  Stopping criterion = force tolerance
  Energy initial, next-to-last, final = 
     -222.579627344519  -222.579627344519  -222.579627344624
  Force two-norm initial, final = 0.00057685877 0.00025468012
  Force max component initial, final = 0.0003470349 0.00015067329
  Final line search alpha, max atom move = 0.28815546 4.341733e-05
  Iterations, force evaluations = 1 2

MPI task timing breakdown:
Section |  min time  |  avg time  |  max time  |%varavg| %total
---------------------------------------------------------------
Pair    | 0.00066813 | 0.00066813 | 0.00066813 |   0.0 | 69.14
Neigh   | 0          | 0          | 0          |   0.0 |  0.00
Comm    | 5.487e-06  | 5.487e-06  | 5.487e-06  |   0.0 |  0.57
Output  | 0          | 0          | 0          |   0.0 |  0.00
Modify  | 0          | 0          | 0          |   0.0 |  0.00
Other   |            | 0.0002928  |            |       | 30.29

Nlocal:             31 ave          31 max          31 min
Histogram: 1 0 0 0 0 0 0 0 0 0
Nghost:            441 ave         441 max         441 min
Histogram: 1 0 0 0 0 0 0 0 0 0
Neighs:              0 ave           0 max           0 min
Histogram: 1 0 0 0 0 0 0 0 0 0
FullNghs:         5406 ave        5406 max        5406 min
Histogram: 1 0 0 0 0 0 0 0 0 0

Total # of neighbors = 5406
Ave neighs/atom = 174.3871
Neighbor list builds = 0
Dangerous builds = 0

# Minimize the with fire
  unfix           frb
  min_style       fire
  minimize        0.0 1.0e-3 10000 10000
  Parameters for fire:
    dmax  delaystep dtgrow dtshrink alpha0 alphashrink tmax tmin   integrator   halfstepback   abcfire  
     0.1     20      1.1     0.5     0.25     0.99      10  0.02 eulerimplicit      yes          no     
Per MPI rank memory allocation (min/avg/max) = 3.898 | 3.898 | 3.898 Mbytes
   Step          Temp          PotEng           Lx             Ly             Lz            Pxx            Pyy            Pzz            Fmax          Fnorm     
       570                     0   -222.5796273446239    9.728206670202402    8.424876142490724    49.91257982631124 -0.02560118351171472 -0.02608756368362592 5.11299658589622e-05 0.0001506732870067919 0.000233688967409432
       571  5.656433512825843e-09   -222.5796273446677    9.728206670202402    8.424876142490724    49.91257982631124 -0.02516636310121636 -0.02635071036150556 5.117375702955212e-05 0.0001507307043325037 0.0002333887721593688
Loop time of 0.00082406 on 1 procs for 1 steps with 31 atoms

0.0% CPU use with 1 MPI tasks x no OpenMP threads

Minimization stats:
  Stopping criterion = force tolerance
  Energy initial, next-to-last, final = 
     -222.579627344624  -222.579627344624  -222.579627344668
  Force two-norm initial, final = 0.00023368897 0.00023338877
  Force max component initial, final = 0.00015067329 0.0001507307
  Final line search alpha, max atom move = 0 0
  Iterations, force evaluations = 1 2

MPI task timing breakdown:
Section |  min time  |  avg time  |  max time  |%varavg| %total
---------------------------------------------------------------
Pair    | 0.00056965 | 0.00056965 | 0.00056965 |   0.0 | 69.13
Neigh   | 0          | 0          | 0          |   0.0 |  0.00
Comm    | 4.985e-06  | 4.985e-06  | 4.985e-06  |   0.0 |  0.60
Output  | 0          | 0          | 0          |   0.0 |  0.00
Modify  | 0          | 0          | 0          |   0.0 |  0.00
Other   |            | 0.0002494  |            |       | 30.27

Nlocal:             31 ave          31 max          31 min
Histogram: 1 0 0 0 0 0 0 0 0 0
Nghost:            441 ave         441 max         441 min
Histogram: 1 0 0 0 0 0 0 0 0 0
Neighs:              0 ave           0 max           0 min
Histogram: 1 0 0 0 0 0 0 0 0 0
FullNghs:         5406 ave        5406 max        5406 min
Histogram: 1 0 0 0 0 0 0 0 0 0

Total # of neighbors = 5406
Ave neighs/atom = 174.3871
Neighbor list builds = 0
Dangerous builds = 0

next nr
jump ${simname}.in loopmin
jump AIREBO.in loopmin

# Minimize the with cg + box/relax
  fix             frb all box/relax tri 0.0 couple none
  min_style       cg
  min_modify      line quadratic
  minimize        0.0 1.0e-3 10000 10000
Per MPI rank memory allocation (min/avg/max) = 5.023 | 5.023 | 5.023 Mbytes
   Step          Temp          PotEng           Lx             Ly             Lz            Pxx            Pyy            Pzz            Fmax          Fnorm     
WARNING: Too many warnings: 101 vs 100. All future warnings will be suppressed (src/thermo.cpp:472)
       571  5.656433512825843e-09   -222.5796273446676    9.728206670202402    8.424876142490724    49.91257982631124 -0.02516636299523933 -0.02635071043742487 5.117375702450816e-05 0.0001507307043268304 0.0002333887721709857
       572  5.656433512825843e-09   -222.5796273447572    9.728204767571006    8.424874417219989    49.91257984615549    0.135473570118841    0.137718143082925 5.128636871310106e-05 0.0001509569060258066 0.0002339094963600765
Loop time of 0.000862232 on 1 procs for 1 steps with 31 atoms

0.0% CPU use with 1 MPI tasks x no OpenMP threads

Minimization stats:
  Stopping criterion = force tolerance
  Energy initial, next-to-last, final = 
     -222.579627344668  -222.579627344668  -222.579627344757
  Force two-norm initial, final = 0.00025358776 0.00058352266
  Force max component initial, final = 0.0001507307 0.00035163091
  Final line search alpha, max atom move = 1 0.00035163091
  Iterations, force evaluations = 1 2

MPI task timing breakdown:
Section |  min time  |  avg time  |  max time  |%varavg| %total
---------------------------------------------------------------
Pair    | 0.00061857 | 0.00061857 | 0.00061857 |   0.0 | 71.74
Neigh   | 0          | 0          | 0          |   0.0 |  0.00
Comm    | 5.562e-06  | 5.562e-06  | 5.562e-06  |   0.0 |  0.65
Output  | 0          | 0          | 0          |   0.0 |  0.00
Modify  | 0          | 0          | 0          |   0.0 |  0.00
Other   |            | 0.0002381  |            |       | 27.61

Nlocal:             31 ave          31 max          31 min
Histogram: 1 0 0 0 0 0 0 0 0 0
Nghost:            441 ave         441 max         441 min
Histogram: 1 0 0 0 0 0 0 0 0 0
Neighs:              0 ave           0 max           0 min
Histogram: 1 0 0 0 0 0 0 0 0 0
FullNghs:         5406 ave        5406 max        5406 min
Histogram: 1 0 0 0 0 0 0 0 0 0

Total # of neighbors = 5406
Ave neighs/atom = 174.3871
Neighbor list builds = 0
Dangerous builds = 0

# Minimize the with fire
  unfix           frb
  min_style       fire
  minimize        0.0 1.0e-3 10000 10000
  Parameters for fire:
    dmax  delaystep dtgrow dtshrink alpha0 alphashrink tmax tmin   integrator   halfstepback   abcfire  
     0.1     20      1.1     0.5     0.25     0.99      10  0.02 eulerimplicit      yes          no     
Per MPI rank memory allocation (min/avg/max) = 3.898 | 3.898 | 3.898 Mbytes
   Step          Temp          PotEng           Lx             Ly             Lz            Pxx            Pyy            Pzz            Fmax          Fnorm     
       572                     0   -222.5796273447572    9.728204767571006    8.424874417219989    49.91257984615549   0.1354735685767271   0.1377181420574368 5.127177459978791e-05 0.0001509569060258053 0.0002339094963897006
       573  5.667114342549155e-09    -222.579627344801    9.728204767571006    8.424874417219989    49.91257984615549   0.1356149230868262   0.1370675581498126 5.131560859221459e-05 0.0001510140217499367 0.0002332253064076265
Loop time of 0.000814963 on 1 procs for 1 steps with 31 atoms

0.0% CPU use with 1 MPI tasks x no OpenMP threads

Minimization stats:
  Stopping criterion = force tolerance
  Energy initial, next-to-last, final = 
     -222.579627344757  -222.579627344757  -222.579627344801
  Force two-norm initial, final = 0.0002339095 0.00023322531
  Force max component initial, final = 0.00015095691 0.00015101402
  Final line search alpha, max atom move = 0 0
  Iterations, force evaluations = 1 2

MPI task timing breakdown:
Section |  min time  |  avg time  |  max time  |%varavg| %total
---------------------------------------------------------------
Pair    | 0.00057239 | 0.00057239 | 0.00057239 |   0.0 | 70.24
Neigh   | 0          | 0          | 0          |   0.0 |  0.00
Comm    | 4.862e-06  | 4.862e-06  | 4.862e-06  |   0.0 |  0.60
Output  | 0          | 0          | 0          |   0.0 |  0.00
Modify  | 0          | 0          | 0          |   0.0 |  0.00
Other   |            | 0.0002377  |            |       | 29.17

Nlocal:             31 ave          31 max          31 min
Histogram: 1 0 0 0 0 0 0 0 0 0
Nghost:            441 ave         441 max         441 min
Histogram: 1 0 0 0 0 0 0 0 0 0
Neighs:              0 ave           0 max           0 min
Histogram: 1 0 0 0 0 0 0 0 0 0
FullNghs:         5406 ave        5406 max        5406 min
Histogram: 1 0 0 0 0 0 0 0 0 0

Total # of neighbors = 5406
Ave neighs/atom = 174.3871
Neighbor list builds = 0
Dangerous builds = 0

next nr
jump ${simname}.in loopmin
jump AIREBO.in loopmin

variable        energy equal pe
fix             output all ave/time 1 1 1 v_energy file ${simname}_energy.data
fix             output all ave/time 1 1 1 v_energy file AIREBO_energy.data
dump            dump1 all custom 1 ${simname}.lammpstrj id type x y z fx fy fz
dump            dump1 all custom 1 AIREBO.lammpstrj id type x y z fx fy fz
dump_modify     dump1 sort id

fix             nve all nve
run             0
Per MPI rank memory allocation (min/avg/max) = 3.898 | 3.898 | 3.898 Mbytes
   Step          Temp          PotEng           Lx             Ly             Lz            Pxx            Pyy            Pzz            Fmax          Fnorm     
       573  5.667114342549155e-09    -222.579627344801    9.728204767571006    8.424874417219989    49.91257984615549   0.1356149229366679   0.1370675581818604 5.131560858889956e-05 0.0001510140217499276 0.0002332253064134402
Loop time of 7.58e-07 on 1 procs for 0 steps with 31 atoms

0.0% CPU use with 1 MPI tasks x no OpenMP threads

MPI task timing breakdown:
Section |  min time  |  avg time  |  max time  |%varavg| %total
---------------------------------------------------------------
Pair    | 0          | 0          | 0          |   0.0 |  0.00
Neigh   | 0          | 0          | 0          |   0.0 |  0.00
Comm    | 0          | 0          | 0          |   0.0 |  0.00
Output  | 0          | 0          | 0          |   0.0 |  0.00
Modify  | 0          | 0          | 0          |   0.0 |  0.00
Other   |            | 7.58e-07   |            |       |100.00

Nlocal:             31 ave          31 max          31 min
Histogram: 1 0 0 0 0 0 0 0 0 0
Nghost:            441 ave         441 max         441 min
Histogram: 1 0 0 0 0 0 0 0 0 0
Neighs:              0 ave           0 max           0 min
Histogram: 1 0 0 0 0 0 0 0 0 0
FullNghs:         5406 ave        5406 max        5406 min
Histogram: 1 0 0 0 0 0 0 0 0 0

Total # of neighbors = 5406
Ave neighs/atom = 174.3871
Neighbor list builds = 0
Dangerous builds = 0
Total wall time: 0:00:01
