units           metal
atom_style      atomic
boundary        p p p
processors		  * * 1
read_data		    V1.data
Reading data file ...
  triclinic box = (0 0 0) to (9.8162093 8.5096963 49.912578) with tilt (4.9269689 9.6324442e-05 0.00014682442)
WARNING: Triclinic box skew is large. LAMMPS will run inefficiently. (src/domain.cpp:220)
  1 by 1 by 1 MPI processor grid
  reading atoms ...
  31 atoms
  read_data CPU = 0.003 seconds
mass            1 12.011

# Define potentials
pair_style      lcbop
pair_coeff      * * C.lcbop C
Reading potential file C.lcbop with DATE: 2012-05-22


# Variable
variable        thermofrq equal 10
variable        Nloop equal 100     # number of loop to run
variable        binding equal pe


# Output
thermo          ${thermofrq}
thermo          10
thermo_style    custom step temp pe lx ly lz pxx pyy pzz fmax fnorm
thermo_modify   line one format float %20.16g
thermo_modify   flush yes norm no lost warn

# Minimize the system in loops
timestep        1.0e-3
variable        nr loop ${Nloop}
variable        nr loop 100
label           loopmin

# Minimize the with cg + box/relax
  fix             frb all box/relax tri 0.0 couple none
  min_style       cg
  min_modify      line quadratic
  minimize        0.0 1.0e-3 10000 10000
Neighbor list info ...
  update: every = 1 steps, delay = 0 steps, check = yes
  max neighbors/atom: 2000, page size: 100000
  master list distance cutoff = 8.6
  ghost atom cutoff = 8.6
  binsize = 4.3, bins = 4 2 12
  1 neighbor lists, perpetual/occasional/extra = 1 0 0
  (1) pair lcbop, perpetual
      attributes: full, newton on, ghost
      pair build: full/bin/ghost
      stencil: full/ghost/bin/3d
      bin: standard
WARNING: Energy due to 6 extra global DOFs will be included in minimizer energies
 (src/min.cpp:225)
Per MPI rank memory allocation (min/avg/max) = 5.149 | 5.149 | 5.149 Mbytes
   Step          Temp          PotEng           Lx             Ly             Lz            Pxx            Pyy            Pzz            Fmax          Fnorm     
         0                     0   -219.7287191108395         9.8162093397         8.5096962804         49.912578381    2771.560389653889    2596.128075230023 -0.0005233877694524427    1.954210297490241    5.494023100457461
        10                     0   -219.7452300822064    9.826025549039702    8.517645081994726    49.91257837000037    1993.689529896422    1854.767193493345 -0.0005341605934173116    1.906521504805446    5.427847020901577
        20                     0   -219.7597918143667    9.835841758379404    8.525525498979531     49.9125783533521    1228.076533292753    1128.967658096696 -0.0005437762102467328    1.848214308685291    5.340156299181555
        30                     0   -219.7764767597303    9.845657967719106    8.533264001225749    49.91257832046566    476.9963241596436    424.2977054940626 -0.0005508429363010268    1.759106454983912    5.185559318542805
        40                     0   -219.8407255770686    9.852478157308971    8.538051052871333    49.91257812638427    11.15044086242547     4.82379973474942 -0.0005343862185693795    1.396257766940371    4.449785916329468
        50                     0   -220.0424423595385    9.859600718937569    8.542740189991493     49.9125770595212    41.27874065509234    39.28207066939633 -0.0003758423803722271    1.187450422517006     2.61830941147428
        60                     0   -220.1154869331417    9.865670944529301    8.547464327028857    49.91257649169271   -7.423823406580233   -9.129912470882788 -0.0002863511971279162   0.9853533199930646    2.119482596338566
        70                     0   -220.1671306738008    9.869153172551002    8.550021869900522    49.91257602605688    103.0284284541176    102.0258928260795 -0.0002180682220555161   0.7921629267806085    1.709650513179275
        80                     0    -220.196546589461    9.873446318362646    8.553436749646467    49.91257572051099     35.3270625430356    34.30748660406568 -0.0001793578931793317   0.6665296079075811     1.45043073142771
        90                     0   -220.2205423802241    9.877542820941835    8.556684326410638    49.91257542878709   -22.98547888593628   -24.01739159375099 -0.0001464203029838056   0.5463791704204494    1.200752683330208
       100                     0   -220.2453175165664    9.881212829692119    8.559435121411624    49.91257504054301    34.97121314419246    34.41148166441513 -0.0001084172287722743    0.386282306348679   0.8604788473204653
       110                     0   -220.2564885183582    9.883812911582828    8.561406166459236    49.91257479272954    42.68870404026286    42.25293696182409 -8.852399654633892e-05   0.2935017095667835   0.6576210338197852
       120                     0   -220.2633402957783    9.886337150099834     8.56334754530468    49.91257457740596    16.36329869974139    15.91654015017047 -7.390514787961085e-05   0.2221559481945133   0.4985290640897378
       130                     0   -220.2669151946676    9.888430484484767    8.564977816013743    49.91257441423576   -29.51359694243424   -30.10625882040197 -6.432217126280248e-05   0.1757067512452882   0.3935707831725163
       140                     0   -220.2698092081431    9.888611136223886    8.564896476974706    49.91257421009055    81.90774019289435    81.96019913697238 -5.284792245327779e-05   0.1180737988143125   0.2638044956342659
       150                     0   -220.2724144200496     9.89262222858971    8.567899257590504    49.91257376655076   -8.311224691321923    -8.50154401011739 -3.451736361482141e-05  0.03386729039244784  0.07489211429655811
       160                     0   -220.2726739615225    9.893713568265204    8.568253652999624    49.91257306069489  -0.9786423307505525    2.047337465123624 -1.421013779599843e-05 0.004053376573048427  0.01320835017754148
       170                     0   -220.2726768025737    9.893567278286765    8.568286611630921     49.9125729440246    5.501286309420545     -4.4565127691602 -1.152931864227219e-05 0.001578991832706613 0.004559556571042018
       180                     0   -220.2726773949954    9.893681431627634    8.568179167154598    49.91257287617018   -1.176268442348056    1.263380171793327 -1.006842766657729e-05 0.0008315704647291679 0.002717610148919582
       190                     0   -220.2726776236391    9.893675518933327    8.568179053798621    49.91257281626061  -0.7284813324531912   0.7287207947916677 -8.834074146052286e-06 0.0005090760514188617 0.001753241803560461
       200                     0   -220.2726778526117    9.893675046001482     8.56817038038306    49.91257261418108 -0.05054843793427161   0.2269930148035215 -5.288420831692875e-06 0.0002428075541279925 0.0005095395291589594
       201                     0   -220.2726778538731    9.893672649316697    8.568176298611137    49.91257261251896  0.04958996811561144  -0.2109696427004728 -5.263403882530327e-06 0.0002188250676973812 0.0004584985393895755
Loop time of 0.0250859 on 1 procs for 201 steps with 31 atoms

68.8% CPU use with 1 MPI tasks x no OpenMP threads

Minimization stats:
  Stopping criterion = force tolerance
  Energy initial, next-to-last, final = 
      -219.72871911084  -220.272677852612  -220.272677853873
  Force two-norm initial, final = 11.318004 0.00074551439
  Force max component initial, final = 7.2124342 0.00055333885
  Final line search alpha, max atom move = 0.072131252 3.9913024e-05
  Iterations, force evaluations = 201 250

MPI task timing breakdown:
Section |  min time  |  avg time  |  max time  |%varavg| %total
---------------------------------------------------------------
Pair    | 0.014341   | 0.014341   | 0.014341   |   0.0 | 57.17
Neigh   | 0          | 0          | 0          |   0.0 |  0.00
Comm    | 0.00024611 | 0.00024611 | 0.00024611 |   0.0 |  0.98
Output  | 0.0094148  | 0.0094148  | 0.0094148  |   0.0 | 37.53
Modify  | 0          | 0          | 0          |   0.0 |  0.00
Other   |            | 0.001084   |            |       |  4.32

Nlocal:             31 ave          31 max          31 min
Histogram: 1 0 0 0 0 0 0 0 0 0
Nghost:            273 ave         273 max         273 min
Histogram: 1 0 0 0 0 0 0 0 0 0
Neighs:              0 ave           0 max           0 min
Histogram: 1 0 0 0 0 0 0 0 0 0
FullNghs:         2540 ave        2540 max        2540 min
Histogram: 1 0 0 0 0 0 0 0 0 0

Total # of neighbors = 2540
Ave neighs/atom = 81.935484
Neighbor list builds = 0
Dangerous builds = 0

# Minimize the with fire
  unfix           frb
  min_style       fire
  minimize        0.0 1.0e-3 10000 10000
  Parameters for fire:
    dmax  delaystep dtgrow dtshrink alpha0 alphashrink tmax tmin   integrator   halfstepback   abcfire  
     0.1     20      1.1     0.5     0.25     0.99      10  0.02 eulerimplicit      yes          no     
Per MPI rank memory allocation (min/avg/max) = 4.024 | 4.024 | 4.024 Mbytes
   Step          Temp          PotEng           Lx             Ly             Lz            Pxx            Pyy            Pzz            Fmax          Fnorm     
       201                     0   -220.2726778538731    9.893672649316697    8.568176298611137    49.91257261251896  0.04958996811226925  -0.2109696427126855 -5.26340388118161e-06 0.0002188250675247217 0.0004584985393264836
       202  2.177419863030077e-08   -220.2726778540356    9.893672649316697    8.568176298611137    49.91257261251896  0.05039001788935252  -0.2098824256431479 -5.249488228852442e-06 0.0002011056335794545 0.0004255888627170548
Loop time of 0.000767995 on 1 procs for 1 steps with 31 atoms

40.0% CPU use with 1 MPI tasks x no OpenMP threads

Minimization stats:
  Stopping criterion = force tolerance
  Energy initial, next-to-last, final = 
     -220.272677853873  -220.272677853873  -220.272677854036
  Force two-norm initial, final = 0.00045849854 0.00042558886
  Force max component initial, final = 0.00021882507 0.00020110563
  Final line search alpha, max atom move = 0 0
  Iterations, force evaluations = 1 2

MPI task timing breakdown:
Section |  min time  |  avg time  |  max time  |%varavg| %total
---------------------------------------------------------------
Pair    | 0.00021737 | 0.00021737 | 0.00021737 |   0.0 | 28.30
Neigh   | 0          | 0          | 0          |   0.0 |  0.00
Comm    | 3.63e-06   | 3.63e-06   | 3.63e-06   |   0.0 |  0.47
Output  | 0          | 0          | 0          |   0.0 |  0.00
Modify  | 0          | 0          | 0          |   0.0 |  0.00
Other   |            | 0.000547   |            |       | 71.22

Nlocal:             31 ave          31 max          31 min
Histogram: 1 0 0 0 0 0 0 0 0 0
Nghost:            273 ave         273 max         273 min
Histogram: 1 0 0 0 0 0 0 0 0 0
Neighs:              0 ave           0 max           0 min
Histogram: 1 0 0 0 0 0 0 0 0 0
FullNghs:         2502 ave        2502 max        2502 min
Histogram: 1 0 0 0 0 0 0 0 0 0

Total # of neighbors = 2502
Ave neighs/atom = 80.709677
Neighbor list builds = 0
Dangerous builds = 0

next nr
jump ${simname}.in loopmin
jump LCBOP.in loopmin

# Minimize the with cg + box/relax
  fix             frb all box/relax tri 0.0 couple none
  min_style       cg
  min_modify      line quadratic
  minimize        0.0 1.0e-3 10000 10000
WARNING: Energy due to 6 extra global DOFs will be included in minimizer energies
 (src/min.cpp:225)
Per MPI rank memory allocation (min/avg/max) = 5.149 | 5.149 | 5.149 Mbytes
   Step          Temp          PotEng           Lx             Ly             Lz            Pxx            Pyy            Pzz            Fmax          Fnorm     
       202  2.177419863030077e-08   -220.2726778540355    9.893672649316697    8.568176298611137    49.91257261251896  0.05039001807985766  -0.2098824256671475 -5.249488226375999e-06 0.0002011056336712181 0.0004255888631290726
       203  2.177419863030077e-08   -220.2726778542869    9.893673870583958     8.56817189333141    49.91257261187655  0.02096000952899922   0.1152152417937915 -5.238468942980806e-06 0.0001842377048434379 0.0004003691743148627
Loop time of 0.0005125 on 1 procs for 1 steps with 31 atoms

69.1% CPU use with 1 MPI tasks x no OpenMP threads

Minimization stats:
  Stopping criterion = force tolerance
  Energy initial, next-to-last, final = 
     -220.272677854036  -220.272677854036  -220.272677854287
  Force two-norm initial, final = 0.00072941696 0.00050712151
  Force max component initial, final = 0.00055427036 0.0003042674
  Final line search alpha, max atom move = 0.18041737 5.4895125e-05
  Iterations, force evaluations = 1 2

MPI task timing breakdown:
Section |  min time  |  avg time  |  max time  |%varavg| %total
---------------------------------------------------------------
Pair    | 0.00022433 | 0.00022433 | 0.00022433 |   0.0 | 43.77
Neigh   | 0          | 0          | 0          |   0.0 |  0.00
Comm    | 4.338e-06  | 4.338e-06  | 4.338e-06  |   0.0 |  0.85
Output  | 0          | 0          | 0          |   0.0 |  0.00
Modify  | 0          | 0          | 0          |   0.0 |  0.00
Other   |            | 0.0002838  |            |       | 55.38

Nlocal:             31 ave          31 max          31 min
Histogram: 1 0 0 0 0 0 0 0 0 0
Nghost:            273 ave         273 max         273 min
Histogram: 1 0 0 0 0 0 0 0 0 0
Neighs:              0 ave           0 max           0 min
Histogram: 1 0 0 0 0 0 0 0 0 0
FullNghs:         2502 ave        2502 max        2502 min
Histogram: 1 0 0 0 0 0 0 0 0 0

Total # of neighbors = 2502
Ave neighs/atom = 80.709677
Neighbor list builds = 0
Dangerous builds = 0

# Minimize the with fire
  unfix           frb
  min_style       fire
  minimize        0.0 1.0e-3 10000 10000
  Parameters for fire:
    dmax  delaystep dtgrow dtshrink alpha0 alphashrink tmax tmin   integrator   halfstepback   abcfire  
     0.1     20      1.1     0.5     0.25     0.99      10  0.02 eulerimplicit      yes          no     
Per MPI rank memory allocation (min/avg/max) = 4.024 | 4.024 | 4.024 Mbytes
   Step          Temp          PotEng           Lx             Ly             Lz            Pxx            Pyy            Pzz            Fmax          Fnorm     
       203                     0    -220.272677854287    9.893673870583958     8.56817189333141    49.91257261187655  0.02095997373707725    0.115215218291811 -5.243108834352991e-06 0.0001842377048096091 0.000400369174259661
       204  1.660303686439986e-08   -220.2726778544106    9.893673870583958     8.56817189333141    49.91257261187655  0.02399207440244944   0.1136201619993068 -5.229265126817621e-06 0.0001691659028970303 0.0003721004411592225
Loop time of 0.000525071 on 1 procs for 1 steps with 31 atoms

64.4% CPU use with 1 MPI tasks x no OpenMP threads

Minimization stats:
  Stopping criterion = force tolerance
  Energy initial, next-to-last, final = 
     -220.272677854287  -220.272677854287  -220.272677854411
  Force two-norm initial, final = 0.00040036917 0.00037210044
  Force max component initial, final = 0.0001842377 0.0001691659
  Final line search alpha, max atom move = 0 0
  Iterations, force evaluations = 1 2

MPI task timing breakdown:
Section |  min time  |  avg time  |  max time  |%varavg| %total
---------------------------------------------------------------
Pair    | 0.00025075 | 0.00025075 | 0.00025075 |   0.0 | 47.76
Neigh   | 0          | 0          | 0          |   0.0 |  0.00
Comm    | 3.975e-06  | 3.975e-06  | 3.975e-06  |   0.0 |  0.76
Output  | 0          | 0          | 0          |   0.0 |  0.00
Modify  | 0          | 0          | 0          |   0.0 |  0.00
Other   |            | 0.0002703  |            |       | 51.49

Nlocal:             31 ave          31 max          31 min
Histogram: 1 0 0 0 0 0 0 0 0 0
Nghost:            273 ave         273 max         273 min
Histogram: 1 0 0 0 0 0 0 0 0 0
Neighs:              0 ave           0 max           0 min
Histogram: 1 0 0 0 0 0 0 0 0 0
FullNghs:         2502 ave        2502 max        2502 min
Histogram: 1 0 0 0 0 0 0 0 0 0

Total # of neighbors = 2502
Ave neighs/atom = 80.709677
Neighbor list builds = 0
Dangerous builds = 0

next nr
jump ${simname}.in loopmin
jump LCBOP.in loopmin

# Minimize the with cg + box/relax
  fix             frb all box/relax tri 0.0 couple none
  min_style       cg
  min_modify      line quadratic
  minimize        0.0 1.0e-3 10000 10000
WARNING: Energy due to 6 extra global DOFs will be included in minimizer energies
 (src/min.cpp:225)
Per MPI rank memory allocation (min/avg/max) = 5.149 | 5.149 | 5.149 Mbytes
   Step          Temp          PotEng           Lx             Ly             Lz            Pxx            Pyy            Pzz            Fmax          Fnorm     
       204  1.660303686439986e-08   -220.2726778544106    9.893673870583958     8.56817189333141    49.91257261187655  0.02399207447834252   0.1136201620091915 -5.229265122630663e-06 0.0001691659028008104 0.0003721004410122996
       205  1.660303686439986e-08   -220.2726778545567     9.89367465929808    8.568175128062686    49.91257261100854 -0.06059615555855309  -0.1428718764459266 -5.215238392089367e-06 0.0001484917454972083 0.0003338973244532347
Loop time of 0.000449819 on 1 procs for 1 steps with 31 atoms

69.8% CPU use with 1 MPI tasks x no OpenMP threads

Minimization stats:
  Stopping criterion = force tolerance
  Energy initial, next-to-last, final = 
     -220.272677854411  -220.272677854411  -220.272677854557
  Force two-norm initial, final = 0.00048281323 0.00052896095
  Force max component initial, final = 0.00030005488 0.00037730468
  Final line search alpha, max atom move = 0.33327237 0.00012574522
  Iterations, force evaluations = 1 2

MPI task timing breakdown:
Section |  min time  |  avg time  |  max time  |%varavg| %total
---------------------------------------------------------------
Pair    | 0.00021949 | 0.00021949 | 0.00021949 |   0.0 | 48.80
Neigh   | 0          | 0          | 0          |   0.0 |  0.00
Comm    | 3.831e-06  | 3.831e-06  | 3.831e-06  |   0.0 |  0.85
Output  | 0          | 0          | 0          |   0.0 |  0.00
Modify  | 0          | 0          | 0          |   0.0 |  0.00
Other   |            | 0.0002265  |            |       | 50.35

Nlocal:             31 ave          31 max          31 min
Histogram: 1 0 0 0 0 0 0 0 0 0
Nghost:            273 ave         273 max         273 min
Histogram: 1 0 0 0 0 0 0 0 0 0
Neighs:              0 ave           0 max           0 min
Histogram: 1 0 0 0 0 0 0 0 0 0
FullNghs:         2502 ave        2502 max        2502 min
Histogram: 1 0 0 0 0 0 0 0 0 0

Total # of neighbors = 2502
Ave neighs/atom = 80.709677
Neighbor list builds = 0
Dangerous builds = 0

# Minimize the with fire
  unfix           frb
  min_style       fire
  minimize        0.0 1.0e-3 10000 10000
  Parameters for fire:
    dmax  delaystep dtgrow dtshrink alpha0 alphashrink tmax tmin   integrator   halfstepback   abcfire  
     0.1     20      1.1     0.5     0.25     0.99      10  0.02 eulerimplicit      yes          no     
Per MPI rank memory allocation (min/avg/max) = 4.024 | 4.024 | 4.024 Mbytes
   Step          Temp          PotEng           Lx             Ly             Lz            Pxx            Pyy            Pzz            Fmax          Fnorm     
       205                     0   -220.2726778545567     9.89367465929808    8.568175128062686    49.91257261100854 -0.06059618176528334  -0.1428718943560645 -5.219855152806726e-06 0.0001484917454784414 0.0003338973243015298
       206  1.154761099011321e-08   -220.2726778546433     9.89367465929808    8.568175128062686    49.91257261100854 -0.05893988988458092  -0.1423336499552368 -5.206088466457644e-06 0.0001367297495307044 0.0003137740768768442
Loop time of 0.000439616 on 1 procs for 1 steps with 31 atoms

69.2% CPU use with 1 MPI tasks x no OpenMP threads

Minimization stats:
  Stopping criterion = force tolerance
  Energy initial, next-to-last, final = 
     -220.272677854557  -220.272677854557  -220.272677854643
  Force two-norm initial, final = 0.00033389732 0.00031377408
  Force max component initial, final = 0.00014849175 0.00013672975
  Final line search alpha, max atom move = 0 0
  Iterations, force evaluations = 1 2

MPI task timing breakdown:
Section |  min time  |  avg time  |  max time  |%varavg| %total
---------------------------------------------------------------
Pair    | 0.00021661 | 0.00021661 | 0.00021661 |   0.0 | 49.27
Neigh   | 0          | 0          | 0          |   0.0 |  0.00
Comm    | 3.561e-06  | 3.561e-06  | 3.561e-06  |   0.0 |  0.81
Output  | 0          | 0          | 0          |   0.0 |  0.00
Modify  | 0          | 0          | 0          |   0.0 |  0.00
Other   |            | 0.0002194  |            |       | 49.92

Nlocal:             31 ave          31 max          31 min
Histogram: 1 0 0 0 0 0 0 0 0 0
Nghost:            273 ave         273 max         273 min
Histogram: 1 0 0 0 0 0 0 0 0 0
Neighs:              0 ave           0 max           0 min
Histogram: 1 0 0 0 0 0 0 0 0 0
FullNghs:         2502 ave        2502 max        2502 min
Histogram: 1 0 0 0 0 0 0 0 0 0

Total # of neighbors = 2502
Ave neighs/atom = 80.709677
Neighbor list builds = 0
Dangerous builds = 0

next nr
jump ${simname}.in loopmin
jump LCBOP.in loopmin

# Minimize the with cg + box/relax
  fix             frb all box/relax tri 0.0 couple none
  min_style       cg
  min_modify      line quadratic
  minimize        0.0 1.0e-3 10000 10000
WARNING: Energy due to 6 extra global DOFs will be included in minimizer energies
 (src/min.cpp:225)
Per MPI rank memory allocation (min/avg/max) = 5.149 | 5.149 | 5.149 Mbytes
   Step          Temp          PotEng           Lx             Ly             Lz            Pxx            Pyy            Pzz            Fmax          Fnorm     
       206  1.154761099011321e-08   -220.2726778546433     9.89367465929808    8.568175128062686    49.91257261100854 -0.05893988982416917  -0.1423336497890677 -5.206088467506468e-06 0.0001367297495041766 0.0003137740768070803
       207  1.154761099011321e-08   -220.2726778547482    9.893673419327124    8.568172534836529    49.91257261045551  0.05412385582046278  0.06825432684876126 -5.196548564326625e-06 0.0001244350455057953 0.0002909652149588374
Loop time of 0.000667484 on 1 procs for 1 steps with 31 atoms

45.4% CPU use with 1 MPI tasks x no OpenMP threads

Minimization stats:
  Stopping criterion = force tolerance
  Energy initial, next-to-last, final = 
     -220.272677854643  -220.272677854643  -220.272677854748
  Force two-norm initial, final = 0.00051389108 0.000376752
  Force max component initial, final = 0.00037588343 0.00018025014
  Final line search alpha, max atom move = 0.26603993 4.7953735e-05
  Iterations, force evaluations = 1 2

MPI task timing breakdown:
Section |  min time  |  avg time  |  max time  |%varavg| %total
---------------------------------------------------------------
Pair    | 0.00020583 | 0.00020583 | 0.00020583 |   0.0 | 30.84
Neigh   | 0          | 0          | 0          |   0.0 |  0.00
Comm    | 3.682e-06  | 3.682e-06  | 3.682e-06  |   0.0 |  0.55
Output  | 0          | 0          | 0          |   0.0 |  0.00
Modify  | 0          | 0          | 0          |   0.0 |  0.00
Other   |            | 0.000458   |            |       | 68.61

Nlocal:             31 ave          31 max          31 min
Histogram: 1 0 0 0 0 0 0 0 0 0
Nghost:            273 ave         273 max         273 min
Histogram: 1 0 0 0 0 0 0 0 0 0
Neighs:              0 ave           0 max           0 min
Histogram: 1 0 0 0 0 0 0 0 0 0
FullNghs:         2502 ave        2502 max        2502 min
Histogram: 1 0 0 0 0 0 0 0 0 0

Total # of neighbors = 2502
Ave neighs/atom = 80.709677
Neighbor list builds = 0
Dangerous builds = 0

# Minimize the with fire
  unfix           frb
  min_style       fire
  minimize        0.0 1.0e-3 10000 10000
  Parameters for fire:
    dmax  delaystep dtgrow dtshrink alpha0 alphashrink tmax tmin   integrator   halfstepback   abcfire  
     0.1     20      1.1     0.5     0.25     0.99      10  0.02 eulerimplicit      yes          no     
Per MPI rank memory allocation (min/avg/max) = 4.024 | 4.024 | 4.024 Mbytes
   Step          Temp          PotEng           Lx             Ly             Lz            Pxx            Pyy            Pzz            Fmax          Fnorm     
       207                     0   -220.2726778547481    9.893673419327124    8.568172534836529    49.91257261045551  0.05412383820359513  0.06825431519880325 -5.201138363775976e-06 0.0001244350456004657 0.0002909652150742446
       208  8.76896651631225e-09    -220.272677854814    9.893673419327124    8.568172534836529    49.91257261045551  0.05605253289195998  0.06795501174348034 -5.187437886341677e-06 0.0001147575632578363 0.0002746890783565414
Loop time of 0.000461469 on 1 procs for 1 steps with 31 atoms

66.3% CPU use with 1 MPI tasks x no OpenMP threads

Minimization stats:
  Stopping criterion = force tolerance
  Energy initial, next-to-last, final = 
     -220.272677854748  -220.272677854748  -220.272677854814
  Force two-norm initial, final = 0.00029096522 0.00027468908
  Force max component initial, final = 0.00012443505 0.00011475756
  Final line search alpha, max atom move = 0 0
  Iterations, force evaluations = 1 2

MPI task timing breakdown:
Section |  min time  |  avg time  |  max time  |%varavg| %total
---------------------------------------------------------------
Pair    | 0.00021997 | 0.00021997 | 0.00021997 |   0.0 | 47.67
Neigh   | 0          | 0          | 0          |   0.0 |  0.00
Comm    | 3.638e-06  | 3.638e-06  | 3.638e-06  |   0.0 |  0.79
Output  | 0          | 0          | 0          |   0.0 |  0.00
Modify  | 0          | 0          | 0          |   0.0 |  0.00
Other   |            | 0.0002379  |            |       | 51.54

Nlocal:             31 ave          31 max          31 min
Histogram: 1 0 0 0 0 0 0 0 0 0
Nghost:            273 ave         273 max         273 min
Histogram: 1 0 0 0 0 0 0 0 0 0
Neighs:              0 ave           0 max           0 min
Histogram: 1 0 0 0 0 0 0 0 0 0
FullNghs:         2502 ave        2502 max        2502 min
Histogram: 1 0 0 0 0 0 0 0 0 0

Total # of neighbors = 2502
Ave neighs/atom = 80.709677
Neighbor list builds = 0
Dangerous builds = 0

next nr
jump ${simname}.in loopmin
jump LCBOP.in loopmin

# Minimize the with cg + box/relax
  fix             frb all box/relax tri 0.0 couple none
  min_style       cg
  min_modify      line quadratic
  minimize        0.0 1.0e-3 10000 10000
WARNING: Energy due to 6 extra global DOFs will be included in minimizer energies
 (src/min.cpp:225)
Per MPI rank memory allocation (min/avg/max) = 5.149 | 5.149 | 5.149 Mbytes
   Step          Temp          PotEng           Lx             Ly             Lz            Pxx            Pyy            Pzz            Fmax          Fnorm     
       208  8.76896651631225e-09    -220.272677854814    9.893673419327124    8.568172534836529    49.91257261045551  0.05605253293950746  0.06795501173220306 -5.18743788678847e-06 0.0001147575632276394 0.0002746890783142008
       209  8.76896651631225e-09   -220.2726778548897    9.893675071790378    8.568174269793596    49.91257260968332 -0.07029775297513574 -0.08088348174913819 -5.174957879173829e-06 0.0001052609227898729 0.000262645382939419
Loop time of 0.000582392 on 1 procs for 1 steps with 31 atoms

55.6% CPU use with 1 MPI tasks x no OpenMP threads

Minimization stats:
  Stopping criterion = force tolerance
  Energy initial, next-to-last, final = 
     -220.272677854814  -220.272677854814   -220.27267785489
  Force two-norm initial, final = 0.00036694902 0.00039482269
  Force max component initial, final = 0.00017945965 0.00021360201
  Final line search alpha, max atom move = 0.55722834 0.00011902509
  Iterations, force evaluations = 1 2

MPI task timing breakdown:
Section |  min time  |  avg time  |  max time  |%varavg| %total
---------------------------------------------------------------
Pair    | 0.00021876 | 0.00021876 | 0.00021876 |   0.0 | 37.56
Neigh   | 0          | 0          | 0          |   0.0 |  0.00
Comm    | 3.703e-06  | 3.703e-06  | 3.703e-06  |   0.0 |  0.64
Output  | 0          | 0          | 0          |   0.0 |  0.00
Modify  | 0          | 0          | 0          |   0.0 |  0.00
Other   |            | 0.0003599  |            |       | 61.80

Nlocal:             31 ave          31 max          31 min
Histogram: 1 0 0 0 0 0 0 0 0 0
Nghost:            273 ave         273 max         273 min
Histogram: 1 0 0 0 0 0 0 0 0 0
Neighs:              0 ave           0 max           0 min
Histogram: 1 0 0 0 0 0 0 0 0 0
FullNghs:         2502 ave        2502 max        2502 min
Histogram: 1 0 0 0 0 0 0 0 0 0

Total # of neighbors = 2502
Ave neighs/atom = 80.709677
Neighbor list builds = 0
Dangerous builds = 0

# Minimize the with fire
  unfix           frb
  min_style       fire
  minimize        0.0 1.0e-3 10000 10000
  Parameters for fire:
    dmax  delaystep dtgrow dtshrink alpha0 alphashrink tmax tmin   integrator   halfstepback   abcfire  
     0.1     20      1.1     0.5     0.25     0.99      10  0.02 eulerimplicit      yes          no     
Per MPI rank memory allocation (min/avg/max) = 4.024 | 4.024 | 4.024 Mbytes
   Step          Temp          PotEng           Lx             Ly             Lz            Pxx            Pyy            Pzz            Fmax          Fnorm     
       209                     0   -220.2726778548898    9.893675071790378    8.568174269793596    49.91257260968332 -0.07029776529839003 -0.08088349062261106 -5.179526450992989e-06 0.0001052609227456594 0.0002626453830292258
       210  7.145058834296518e-09   -220.2726778549433    9.893675071790378    8.568174269793596    49.91257260968332 -0.06849431505619089 -0.08048164818934955 -5.165898153313982e-06 9.714770749191191e-05 0.0002500662642080035
Loop time of 0.000469937 on 1 procs for 1 steps with 31 atoms

63.8% CPU use with 1 MPI tasks x no OpenMP threads

Minimization stats:
  Stopping criterion = force tolerance
  Energy initial, next-to-last, final = 
      -220.27267785489   -220.27267785489  -220.272677854943
  Force two-norm initial, final = 0.00026264538 0.00025006626
  Force max component initial, final = 0.00010526092 9.7147707e-05
  Final line search alpha, max atom move = 0 0
  Iterations, force evaluations = 1 2

MPI task timing breakdown:
Section |  min time  |  avg time  |  max time  |%varavg| %total
---------------------------------------------------------------
Pair    | 0.00021569 | 0.00021569 | 0.00021569 |   0.0 | 45.90
Neigh   | 0          | 0          | 0          |   0.0 |  0.00
Comm    | 3.718e-06  | 3.718e-06  | 3.718e-06  |   0.0 |  0.79
Output  | 0          | 0          | 0          |   0.0 |  0.00
Modify  | 0          | 0          | 0          |   0.0 |  0.00
Other   |            | 0.0002505  |            |       | 53.31

Nlocal:             31 ave          31 max          31 min
Histogram: 1 0 0 0 0 0 0 0 0 0
Nghost:            273 ave         273 max         273 min
Histogram: 1 0 0 0 0 0 0 0 0 0
Neighs:              0 ave           0 max           0 min
Histogram: 1 0 0 0 0 0 0 0 0 0
FullNghs:         2502 ave        2502 max        2502 min
Histogram: 1 0 0 0 0 0 0 0 0 0

Total # of neighbors = 2502
Ave neighs/atom = 80.709677
Neighbor list builds = 0
Dangerous builds = 0

next nr
jump ${simname}.in loopmin
jump LCBOP.in loopmin

# Minimize the with cg + box/relax
  fix             frb all box/relax tri 0.0 couple none
  min_style       cg
  min_modify      line quadratic
  minimize        0.0 1.0e-3 10000 10000
WARNING: Energy due to 6 extra global DOFs will be included in minimizer energies
 (src/min.cpp:225)
Per MPI rank memory allocation (min/avg/max) = 5.149 | 5.149 | 5.149 Mbytes
   Step          Temp          PotEng           Lx             Ly             Lz            Pxx            Pyy            Pzz            Fmax          Fnorm     
       210  7.145058834296518e-09   -220.2726778549433    9.893675071790378    8.568174269793596    49.91257260968332 -0.06849431518295257 -0.08048164818343764 -5.165898154473783e-06 9.714770736110476e-05 0.0002500662642767068
       211  7.145058834296518e-09   -220.2726778550049    9.893673573753752    8.568172745406065    49.91257260911282  0.04961273143584025  0.05104913516242424 -5.156173977261836e-06 8.702138609941059e-05 0.0002312331276321634
Loop time of 0.000514744 on 1 procs for 1 steps with 31 atoms

74.6% CPU use with 1 MPI tasks x no OpenMP threads

Minimization stats:
  Stopping criterion = force tolerance
  Energy initial, next-to-last, final = 
     -220.272677854943  -220.272677854943  -220.272677855005
  Force two-norm initial, final = 0.0003824423 0.00030520261
  Force max component initial, final = 0.00021254086 0.00013481363
  Final line search alpha, max atom move = 0.47049777 6.3429512e-05
  Iterations, force evaluations = 1 2

MPI task timing breakdown:
Section |  min time  |  avg time  |  max time  |%varavg| %total
---------------------------------------------------------------
Pair    | 0.00029765 | 0.00029765 | 0.00029765 |   0.0 | 57.83
Neigh   | 0          | 0          | 0          |   0.0 |  0.00
Comm    | 4.063e-06  | 4.063e-06  | 4.063e-06  |   0.0 |  0.79
Output  | 0          | 0          | 0          |   0.0 |  0.00
Modify  | 0          | 0          | 0          |   0.0 |  0.00
Other   |            | 0.000213   |            |       | 41.39

Nlocal:             31 ave          31 max          31 min
Histogram: 1 0 0 0 0 0 0 0 0 0
Nghost:            273 ave         273 max         273 min
Histogram: 1 0 0 0 0 0 0 0 0 0
Neighs:              0 ave           0 max           0 min
Histogram: 1 0 0 0 0 0 0 0 0 0
FullNghs:         2502 ave        2502 max        2502 min
Histogram: 1 0 0 0 0 0 0 0 0 0

Total # of neighbors = 2502
Ave neighs/atom = 80.709677
Neighbor list builds = 0
Dangerous builds = 0

# Minimize the with fire
  unfix           frb
  min_style       fire
  minimize        0.0 1.0e-3 10000 10000
  Parameters for fire:
    dmax  delaystep dtgrow dtshrink alpha0 alphashrink tmax tmin   integrator   halfstepback   abcfire  
     0.1     20      1.1     0.5     0.25     0.99      10  0.02 eulerimplicit      yes          no     
Per MPI rank memory allocation (min/avg/max) = 4.024 | 4.024 | 4.024 Mbytes
   Step          Temp          PotEng           Lx             Ly             Lz            Pxx            Pyy            Pzz            Fmax          Fnorm     
       211                     0    -220.272677855005    9.893673573753752    8.568172745406065    49.91257260911282  0.04961272171033956  0.05104912848567142 -5.160717573535494e-06 8.702138603896317e-05 0.0002312331277049728
       212  5.538171172439111e-09   -220.2726778550472    9.893673573753752    8.568172745406065    49.91257260911282  0.05113963961926563  0.05127296420038605 -5.147155148474559e-06 8.058498528155147e-05 0.000221671329217656
Loop time of 0.000511317 on 1 procs for 1 steps with 31 atoms

66.5% CPU use with 1 MPI tasks x no OpenMP threads

Minimization stats:
  Stopping criterion = force tolerance
  Energy initial, next-to-last, final = 
     -220.272677855005  -220.272677855005  -220.272677855047
  Force two-norm initial, final = 0.00023123313 0.00022167133
  Force max component initial, final = 8.7021386e-05 8.0584985e-05
  Final line search alpha, max atom move = 0 0
  Iterations, force evaluations = 1 2

MPI task timing breakdown:
Section |  min time  |  avg time  |  max time  |%varavg| %total
---------------------------------------------------------------
Pair    | 0.00026119 | 0.00026119 | 0.00026119 |   0.0 | 51.08
Neigh   | 0          | 0          | 0          |   0.0 |  0.00
Comm    | 3.899e-06  | 3.899e-06  | 3.899e-06  |   0.0 |  0.76
Output  | 0          | 0          | 0          |   0.0 |  0.00
Modify  | 0          | 0          | 0          |   0.0 |  0.00
Other   |            | 0.0002462  |            |       | 48.16

Nlocal:             31 ave          31 max          31 min
Histogram: 1 0 0 0 0 0 0 0 0 0
Nghost:            273 ave         273 max         273 min
Histogram: 1 0 0 0 0 0 0 0 0 0
Neighs:              0 ave           0 max           0 min
Histogram: 1 0 0 0 0 0 0 0 0 0
FullNghs:         2502 ave        2502 max        2502 min
Histogram: 1 0 0 0 0 0 0 0 0 0

Total # of neighbors = 2502
Ave neighs/atom = 80.709677
Neighbor list builds = 0
Dangerous builds = 0

next nr
jump ${simname}.in loopmin
jump LCBOP.in loopmin

# Minimize the with cg + box/relax
  fix             frb all box/relax tri 0.0 couple none
  min_style       cg
  min_modify      line quadratic
  minimize        0.0 1.0e-3 10000 10000
WARNING: Energy due to 6 extra global DOFs will be included in minimizer energies
 (src/min.cpp:225)
Per MPI rank memory allocation (min/avg/max) = 5.149 | 5.149 | 5.149 Mbytes
   Step          Temp          PotEng           Lx             Ly             Lz            Pxx            Pyy            Pzz            Fmax          Fnorm     
       212  5.538171172439111e-09   -220.2726778550472    9.893673573753752    8.568172745406065    49.91257260911282  0.05113963975423571  0.05127296421792732 -5.147155149987818e-06 8.058498528735629e-05 0.000221671329186817
       213  5.538171172439111e-09   -220.2726778550971    9.893675050676096    8.568174027792965    49.91257260836223 -0.05900294892135147  -0.0606801427615919 -5.13500090006286e-06 7.506664899875924e-05 0.0002174132492378407
Loop time of 0.000835621 on 1 procs for 1 steps with 31 atoms

39.1% CPU use with 1 MPI tasks x no OpenMP threads

Minimization stats:
  Stopping criterion = force tolerance
  Energy initial, next-to-last, final = 
     -220.272677855047  -220.272677855047  -220.272677855097
  Force two-norm initial, final = 0.00030073715 0.00032071235
  Force max component initial, final = 0.00013540471 0.0001602478
  Final line search alpha, max atom move = 0.73852675 0.00011834729
  Iterations, force evaluations = 1 2

MPI task timing breakdown:
Section |  min time  |  avg time  |  max time  |%varavg| %total
---------------------------------------------------------------
Pair    | 0.00022459 | 0.00022459 | 0.00022459 |   0.0 | 26.88
Neigh   | 0          | 0          | 0          |   0.0 |  0.00
Comm    | 3.748e-06  | 3.748e-06  | 3.748e-06  |   0.0 |  0.45
Output  | 0          | 0          | 0          |   0.0 |  0.00
Modify  | 0          | 0          | 0          |   0.0 |  0.00
Other   |            | 0.0006073  |            |       | 72.67

Nlocal:             31 ave          31 max          31 min
Histogram: 1 0 0 0 0 0 0 0 0 0
Nghost:            273 ave         273 max         273 min
Histogram: 1 0 0 0 0 0 0 0 0 0
Neighs:              0 ave           0 max           0 min
Histogram: 1 0 0 0 0 0 0 0 0 0
FullNghs:         2502 ave        2502 max        2502 min
Histogram: 1 0 0 0 0 0 0 0 0 0

Total # of neighbors = 2502
Ave neighs/atom = 80.709677
Neighbor list builds = 0
Dangerous builds = 0

# Minimize the with fire
  unfix           frb
  min_style       fire
  minimize        0.0 1.0e-3 10000 10000
  Parameters for fire:
    dmax  delaystep dtgrow dtshrink alpha0 alphashrink tmax tmin   integrator   halfstepback   abcfire  
     0.1     20      1.1     0.5     0.25     0.99      10  0.02 eulerimplicit      yes          no     
Per MPI rank memory allocation (min/avg/max) = 4.024 | 4.024 | 4.024 Mbytes
   Step          Temp          PotEng           Lx             Ly             Lz            Pxx            Pyy            Pzz            Fmax          Fnorm     
       213                     0    -220.272677855097    9.893675050676096    8.568174027792965    49.91257260836223 -0.05900295573170893 -0.06068014781308528 -5.139523157863776e-06 7.506664877716967e-05 0.0002174132491214662
       214  4.895964727521067e-09   -220.2726778551342    9.893675050676096    8.568174027792965    49.91257260836223 -0.05741800161308382 -0.06007313829437338 -5.126031839661954e-06 6.953473434374364e-05 0.0002098616516890434
Loop time of 0.00056328 on 1 procs for 1 steps with 31 atoms

82.9% CPU use with 1 MPI tasks x no OpenMP threads

Minimization stats:
  Stopping criterion = force tolerance
  Energy initial, next-to-last, final = 
     -220.272677855097  -220.272677855097  -220.272677855134
  Force two-norm initial, final = 0.00021741325 0.00020986165
  Force max component initial, final = 7.5066649e-05 6.9534734e-05
  Final line search alpha, max atom move = 0 0
  Iterations, force evaluations = 1 2

MPI task timing breakdown:
Section |  min time  |  avg time  |  max time  |%varavg| %total
---------------------------------------------------------------
Pair    | 0.00034881 | 0.00034881 | 0.00034881 |   0.0 | 61.93
Neigh   | 0          | 0          | 0          |   0.0 |  0.00
Comm    | 5.662e-06  | 5.662e-06  | 5.662e-06  |   0.0 |  1.01
Output  | 0          | 0          | 0          |   0.0 |  0.00
Modify  | 0          | 0          | 0          |   0.0 |  0.00
Other   |            | 0.0002088  |            |       | 37.07

Nlocal:             31 ave          31 max          31 min
Histogram: 1 0 0 0 0 0 0 0 0 0
Nghost:            273 ave         273 max         273 min
Histogram: 1 0 0 0 0 0 0 0 0 0
Neighs:              0 ave           0 max           0 min
Histogram: 1 0 0 0 0 0 0 0 0 0
FullNghs:         2502 ave        2502 max        2502 min
Histogram: 1 0 0 0 0 0 0 0 0 0

Total # of neighbors = 2502
Ave neighs/atom = 80.709677
Neighbor list builds = 0
Dangerous builds = 0

next nr
jump ${simname}.in loopmin
jump LCBOP.in loopmin

# Minimize the with cg + box/relax
  fix             frb all box/relax tri 0.0 couple none
  min_style       cg
  min_modify      line quadratic
  minimize        0.0 1.0e-3 10000 10000
WARNING: Energy due to 6 extra global DOFs will be included in minimizer energies
 (src/min.cpp:225)
Per MPI rank memory allocation (min/avg/max) = 5.149 | 5.149 | 5.149 Mbytes
   Step          Temp          PotEng           Lx             Ly             Lz            Pxx            Pyy            Pzz            Fmax          Fnorm     
       214  4.895964727521067e-09   -220.2726778551342    9.893675050676096    8.568174027792965    49.91257260836223 -0.05741800159474379  -0.0600731383030652 -5.12603183886395e-06 6.953473420660198e-05 0.0002098616516131135
       215  4.895964727521067e-09   -220.2726778551774    9.893673733849203    8.568172834652543    49.91257260776863  0.04481378736539704  0.04462844181421519 -5.115996902309728e-06 6.181692340514946e-05 0.0001961809648833898
Loop time of 0.000828787 on 1 procs for 1 steps with 31 atoms

53.9% CPU use with 1 MPI tasks x no OpenMP threads

Minimization stats:
  Stopping criterion = force tolerance
  Energy initial, next-to-last, final = 
     -220.272677855134  -220.272677855134  -220.272677855177
  Force two-norm initial, final = 0.0003117948 0.00026435462
  Force max component initial, final = 0.00015864481 0.00011834695
  Final line search alpha, max atom move = 0.63033893 7.4598687e-05
  Iterations, force evaluations = 1 2

MPI task timing breakdown:
Section |  min time  |  avg time  |  max time  |%varavg| %total
---------------------------------------------------------------
Pair    | 0.00032799 | 0.00032799 | 0.00032799 |   0.0 | 39.57
Neigh   | 0          | 0          | 0          |   0.0 |  0.00
Comm    | 5.425e-06  | 5.425e-06  | 5.425e-06  |   0.0 |  0.65
Output  | 0          | 0          | 0          |   0.0 |  0.00
Modify  | 0          | 0          | 0          |   0.0 |  0.00
Other   |            | 0.0004954  |            |       | 59.77

Nlocal:             31 ave          31 max          31 min
Histogram: 1 0 0 0 0 0 0 0 0 0
Nghost:            273 ave         273 max         273 min
Histogram: 1 0 0 0 0 0 0 0 0 0
Neighs:              0 ave           0 max           0 min
Histogram: 1 0 0 0 0 0 0 0 0 0
FullNghs:         2502 ave        2502 max        2502 min
Histogram: 1 0 0 0 0 0 0 0 0 0

Total # of neighbors = 2502
Ave neighs/atom = 80.709677
Neighbor list builds = 0
Dangerous builds = 0

# Minimize the with fire
  unfix           frb
  min_style       fire
  minimize        0.0 1.0e-3 10000 10000
  Parameters for fire:
    dmax  delaystep dtgrow dtshrink alpha0 alphashrink tmax tmin   integrator   halfstepback   abcfire  
     0.1     20      1.1     0.5     0.25     0.99      10  0.02 eulerimplicit      yes          no     
Per MPI rank memory allocation (min/avg/max) = 4.024 | 4.024 | 4.024 Mbytes
   Step          Temp          PotEng           Lx             Ly             Lz            Pxx            Pyy            Pzz            Fmax          Fnorm     
       215                     0   -220.2726778551773    9.893673733849203    8.568172834652543    49.91257260776863    0.044813781767485  0.04462843762767255 -5.120494752545603e-06 6.181692336907355e-05 0.0001961809648816858
       216  3.986391975229956e-09   -220.2726778552075    9.893673733849203    8.568172834652543    49.91257260776863   0.0461171997615593  0.04512220384296114 -5.107069730682876e-06 5.751338248586723e-05 0.0001905708320756927
Loop time of 0.000617265 on 1 procs for 1 steps with 31 atoms

49.7% CPU use with 1 MPI tasks x no OpenMP threads

Minimization stats:
  Stopping criterion = force tolerance
  Energy initial, next-to-last, final = 
     -220.272677855177  -220.272677855177  -220.272677855208
  Force two-norm initial, final = 0.00019618096 0.00019057083
  Force max component initial, final = 6.1816923e-05 5.7513382e-05
  Final line search alpha, max atom move = 0 0
  Iterations, force evaluations = 1 2

MPI task timing breakdown:
Section |  min time  |  avg time  |  max time  |%varavg| %total
---------------------------------------------------------------
Pair    | 0.00022114 | 0.00022114 | 0.00022114 |   0.0 | 35.83
Neigh   | 0          | 0          | 0          |   0.0 |  0.00
Comm    | 3.932e-06  | 3.932e-06  | 3.932e-06  |   0.0 |  0.64
Output  | 0          | 0          | 0          |   0.0 |  0.00
Modify  | 0          | 0          | 0          |   0.0 |  0.00
Other   |            | 0.0003922  |            |       | 63.54

Nlocal:             31 ave          31 max          31 min
Histogram: 1 0 0 0 0 0 0 0 0 0
Nghost:            273 ave         273 max         273 min
Histogram: 1 0 0 0 0 0 0 0 0 0
Neighs:              0 ave           0 max           0 min
Histogram: 1 0 0 0 0 0 0 0 0 0
FullNghs:         2502 ave        2502 max        2502 min
Histogram: 1 0 0 0 0 0 0 0 0 0

Total # of neighbors = 2502
Ave neighs/atom = 80.709677
Neighbor list builds = 0
Dangerous builds = 0

next nr
jump ${simname}.in loopmin
jump LCBOP.in loopmin

# Minimize the with cg + box/relax
  fix             frb all box/relax tri 0.0 couple none
  min_style       cg
  min_modify      line quadratic
  minimize        0.0 1.0e-3 10000 10000
WARNING: Energy due to 6 extra global DOFs will be included in minimizer energies
 (src/min.cpp:225)
Per MPI rank memory allocation (min/avg/max) = 5.149 | 5.149 | 5.149 Mbytes
   Step          Temp          PotEng           Lx             Ly             Lz            Pxx            Pyy            Pzz            Fmax          Fnorm     
       216  3.986391975229956e-09   -220.2726778552075    9.893673733849203    8.568172834652543    49.91257260776863  0.04611719985408979  0.04512220381830982 -5.107069730052299e-06 5.751338254143037e-05 0.000190570832124977
       217  3.986391975229956e-09   -220.2726778552448    9.893675028848142    8.568173931957713    49.91257260704452 -0.05022694231059105 -0.05061525670546926 -5.095346219811093e-06 5.445445434254894e-05 0.0001901907392103793
Loop time of 0.000577734 on 1 procs for 1 steps with 31 atoms

68.5% CPU use with 1 MPI tasks x no OpenMP threads

Minimization stats:
  Stopping criterion = force tolerance
  Energy initial, next-to-last, final = 
     -220.272677855207  -220.272677855207  -220.272677855245
  Force two-norm initial, final = 0.00026274183 0.00027549525
  Force max component initial, final = 0.00012178906 0.00013366784
  Final line search alpha, max atom move = 0.82109179 0.00010975357
  Iterations, force evaluations = 1 2

MPI task timing breakdown:
Section |  min time  |  avg time  |  max time  |%varavg| %total
---------------------------------------------------------------
Pair    | 0.00027448 | 0.00027448 | 0.00027448 |   0.0 | 47.51
Neigh   | 0          | 0          | 0          |   0.0 |  0.00
Comm    | 5.376e-06  | 5.376e-06  | 5.376e-06  |   0.0 |  0.93
Output  | 0          | 0          | 0          |   0.0 |  0.00
Modify  | 0          | 0          | 0          |   0.0 |  0.00
Other   |            | 0.0002979  |            |       | 51.56

Nlocal:             31 ave          31 max          31 min
Histogram: 1 0 0 0 0 0 0 0 0 0
Nghost:            273 ave         273 max         273 min
Histogram: 1 0 0 0 0 0 0 0 0 0
Neighs:              0 ave           0 max           0 min
Histogram: 1 0 0 0 0 0 0 0 0 0
FullNghs:         2502 ave        2502 max        2502 min
Histogram: 1 0 0 0 0 0 0 0 0 0

Total # of neighbors = 2502
Ave neighs/atom = 80.709677
Neighbor list builds = 0
Dangerous builds = 0

# Minimize the with fire
  unfix           frb
  min_style       fire
  minimize        0.0 1.0e-3 10000 10000
  Parameters for fire:
    dmax  delaystep dtgrow dtshrink alpha0 alphashrink tmax tmin   integrator   halfstepback   abcfire  
     0.1     20      1.1     0.5     0.25     0.99      10  0.02 eulerimplicit      yes          no     
Per MPI rank memory allocation (min/avg/max) = 4.024 | 4.024 | 4.024 Mbytes
   Step          Temp          PotEng           Lx             Ly             Lz            Pxx            Pyy            Pzz            Fmax          Fnorm     
       217                     0   -220.2726778552448    9.893675028848142    8.568173931957713    49.91257260704452 -0.05022694633201109 -0.05061525986954015 -5.099822494693501e-06 5.445445434188454e-05 0.0001901907392071569
       218  3.746666181723183e-09   -220.2726778552737    9.893675028848142    8.568173931957713    49.91257260704452 -0.04883113055723753 -0.04985211056818618 -5.086466924672122e-06 5.416665523718087e-05 0.0001856249343502939
Loop time of 0.000555008 on 1 procs for 1 steps with 31 atoms

71.0% CPU use with 1 MPI tasks x no OpenMP threads

Minimization stats:
  Stopping criterion = force tolerance
  Energy initial, next-to-last, final = 
     -220.272677855245  -220.272677855245  -220.272677855274
  Force two-norm initial, final = 0.00019019074 0.00018562493
  Force max component initial, final = 5.4454454e-05 5.4166655e-05
  Final line search alpha, max atom move = 0 0
  Iterations, force evaluations = 1 2

MPI task timing breakdown:
Section |  min time  |  avg time  |  max time  |%varavg| %total
---------------------------------------------------------------
Pair    | 0.00025165 | 0.00025165 | 0.00025165 |   0.0 | 45.34
Neigh   | 0          | 0          | 0          |   0.0 |  0.00
Comm    | 4.489e-06  | 4.489e-06  | 4.489e-06  |   0.0 |  0.81
Output  | 0          | 0          | 0          |   0.0 |  0.00
Modify  | 0          | 0          | 0          |   0.0 |  0.00
Other   |            | 0.0002989  |            |       | 53.85

Nlocal:             31 ave          31 max          31 min
Histogram: 1 0 0 0 0 0 0 0 0 0
Nghost:            273 ave         273 max         273 min
Histogram: 1 0 0 0 0 0 0 0 0 0
Neighs:              0 ave           0 max           0 min
Histogram: 1 0 0 0 0 0 0 0 0 0
FullNghs:         2502 ave        2502 max        2502 min
Histogram: 1 0 0 0 0 0 0 0 0 0

Total # of neighbors = 2502
Ave neighs/atom = 80.709677
Neighbor list builds = 0
Dangerous builds = 0

next nr
jump ${simname}.in loopmin
jump LCBOP.in loopmin

# Minimize the with cg + box/relax
  fix             frb all box/relax tri 0.0 couple none
  min_style       cg
  min_modify      line quadratic
  minimize        0.0 1.0e-3 10000 10000
WARNING: Energy due to 6 extra global DOFs will be included in minimizer energies
 (src/min.cpp:225)
Per MPI rank memory allocation (min/avg/max) = 5.149 | 5.149 | 5.149 Mbytes
   Step          Temp          PotEng           Lx             Ly             Lz            Pxx            Pyy            Pzz            Fmax          Fnorm     
       218  3.746666181723183e-09   -220.2726778552735    9.893675028848142    8.568173931957713    49.91257260704452 -0.04883113044982482 -0.04985211057471817 -5.086466923630995e-06 5.41666552490507e-05 0.0001856249342960268
       219  3.746666181723183e-09   -220.2726778553068     9.89367385453763    8.568172893711525    49.91257260642688  0.04210528982455044  0.04181962359323014 -5.076087105564962e-06 5.409823802826039e-05 0.0001754321781684814
Loop time of 0.000541466 on 1 procs for 1 steps with 31 atoms

73.1% CPU use with 1 MPI tasks x no OpenMP threads

Minimization stats:
  Stopping criterion = force tolerance
  Energy initial, next-to-last, final = 
     -220.272677855273  -220.272677855273  -220.272677855307
  Force two-norm initial, final = 0.00026890525 0.00024153395
  Force max component initial, final = 0.00013165249 0.00011119419
  Final line search alpha, max atom move = 0.75957544 8.4460373e-05
  Iterations, force evaluations = 1 2

MPI task timing breakdown:
Section |  min time  |  avg time  |  max time  |%varavg| %total
---------------------------------------------------------------
Pair    | 0.00025429 | 0.00025429 | 0.00025429 |   0.0 | 46.96
Neigh   | 0          | 0          | 0          |   0.0 |  0.00
Comm    | 5.168e-06  | 5.168e-06  | 5.168e-06  |   0.0 |  0.95
Output  | 0          | 0          | 0          |   0.0 |  0.00
Modify  | 0          | 0          | 0          |   0.0 |  0.00
Other   |            | 0.000282   |            |       | 52.08

Nlocal:             31 ave          31 max          31 min
Histogram: 1 0 0 0 0 0 0 0 0 0
Nghost:            273 ave         273 max         273 min
Histogram: 1 0 0 0 0 0 0 0 0 0
Neighs:              0 ave           0 max           0 min
Histogram: 1 0 0 0 0 0 0 0 0 0
FullNghs:         2502 ave        2502 max        2502 min
Histogram: 1 0 0 0 0 0 0 0 0 0

Total # of neighbors = 2502
Ave neighs/atom = 80.709677
Neighbor list builds = 0
Dangerous builds = 0

# Minimize the with fire
  unfix           frb
  min_style       fire
  minimize        0.0 1.0e-3 10000 10000
  Parameters for fire:
    dmax  delaystep dtgrow dtshrink alpha0 alphashrink tmax tmin   integrator   halfstepback   abcfire  
     0.1     20      1.1     0.5     0.25     0.99      10  0.02 eulerimplicit      yes          no     
Per MPI rank memory allocation (min/avg/max) = 4.024 | 4.024 | 4.024 Mbytes
   Step          Temp          PotEng           Lx             Ly             Lz            Pxx            Pyy            Pzz            Fmax          Fnorm     
       219                     0   -220.2726778553069     9.89367385453763    8.568172893711525    49.91257260642688  0.04210528626287662  0.04181962072194696 -5.080539647515951e-06 5.409823802826222e-05 0.0001754321781327761
       220  3.187753847776491e-09   -220.2726778553314     9.89367385453763    8.568172893711525    49.91257260642688  0.04325672765643786  0.04246337127429042 -5.067251009187994e-06 5.404031557117943e-05 0.0001720553634024768
Loop time of 0.000446648 on 1 procs for 1 steps with 31 atoms

67.2% CPU use with 1 MPI tasks x no OpenMP threads

Minimization stats:
  Stopping criterion = force tolerance
  Energy initial, next-to-last, final = 
     -220.272677855307  -220.272677855307  -220.272677855331
  Force two-norm initial, final = 0.00017543218 0.00017205536
  Force max component initial, final = 5.4098238e-05 5.4040316e-05
  Final line search alpha, max atom move = 0 0
  Iterations, force evaluations = 1 2

MPI task timing breakdown:
Section |  min time  |  avg time  |  max time  |%varavg| %total
---------------------------------------------------------------
Pair    | 0.00020827 | 0.00020827 | 0.00020827 |   0.0 | 46.63
Neigh   | 0          | 0          | 0          |   0.0 |  0.00
Comm    | 4.566e-06  | 4.566e-06  | 4.566e-06  |   0.0 |  1.02
Output  | 0          | 0          | 0          |   0.0 |  0.00
Modify  | 0          | 0          | 0          |   0.0 |  0.00
Other   |            | 0.0002338  |            |       | 52.35

Nlocal:             31 ave          31 max          31 min
Histogram: 1 0 0 0 0 0 0 0 0 0
Nghost:            273 ave         273 max         273 min
Histogram: 1 0 0 0 0 0 0 0 0 0
Neighs:              0 ave           0 max           0 min
Histogram: 1 0 0 0 0 0 0 0 0 0
FullNghs:         2502 ave        2502 max        2502 min
Histogram: 1 0 0 0 0 0 0 0 0 0

Total # of neighbors = 2502
Ave neighs/atom = 80.709677
Neighbor list builds = 0
Dangerous builds = 0

next nr
jump ${simname}.in loopmin
jump LCBOP.in loopmin

# Minimize the with cg + box/relax
  fix             frb all box/relax tri 0.0 couple none
  min_style       cg
  min_modify      line quadratic
  minimize        0.0 1.0e-3 10000 10000
WARNING: Energy due to 6 extra global DOFs will be included in minimizer energies
 (src/min.cpp:225)
Per MPI rank memory allocation (min/avg/max) = 5.149 | 5.149 | 5.149 Mbytes
   Step          Temp          PotEng           Lx             Ly             Lz            Pxx            Pyy            Pzz            Fmax          Fnorm     
       220  3.187753847776491e-09   -220.2726778553314     9.89367385453763    8.568172893711525    49.91257260642688  0.04325672769759523  0.04246337130126972 -5.067251009083753e-06 5.40403155711848e-05 0.0001720553634275691
       221  3.187753847776491e-09   -220.2726778553616    9.893675029061592    8.568173892223609    49.91257260573215 -0.04424065308147405 -0.04440685122109215 -5.056018581483298e-06 5.396735256214002e-05 0.0001736239164335661
Loop time of 0.000866888 on 1 procs for 1 steps with 31 atoms

43.7% CPU use with 1 MPI tasks x no OpenMP threads

Minimization stats:
  Stopping criterion = force tolerance
  Energy initial, next-to-last, final = 
     -220.272677855331  -220.272677855331  -220.272677855362
  Force two-norm initial, final = 0.00024145839 0.00024685391
  Force max component initial, final = 0.00011423496 0.00011727231
  Final line search alpha, max atom move = 0.87538874 0.00010265886
  Iterations, force evaluations = 1 2

MPI task timing breakdown:
Section |  min time  |  avg time  |  max time  |%varavg| %total
---------------------------------------------------------------
Pair    | 0.00026913 | 0.00026913 | 0.00026913 |   0.0 | 31.05
Neigh   | 0          | 0          | 0          |   0.0 |  0.00
Comm    | 4.886e-06  | 4.886e-06  | 4.886e-06  |   0.0 |  0.56
Output  | 0          | 0          | 0          |   0.0 |  0.00
Modify  | 0          | 0          | 0          |   0.0 |  0.00
Other   |            | 0.0005929  |            |       | 68.39

Nlocal:             31 ave          31 max          31 min
Histogram: 1 0 0 0 0 0 0 0 0 0
Nghost:            273 ave         273 max         273 min
Histogram: 1 0 0 0 0 0 0 0 0 0
Neighs:              0 ave           0 max           0 min
Histogram: 1 0 0 0 0 0 0 0 0 0
FullNghs:         2502 ave        2502 max        2502 min
Histogram: 1 0 0 0 0 0 0 0 0 0

Total # of neighbors = 2502
Ave neighs/atom = 80.709677
Neighbor list builds = 0
Dangerous builds = 0

# Minimize the with fire
  unfix           frb
  min_style       fire
  minimize        0.0 1.0e-3 10000 10000
  Parameters for fire:
    dmax  delaystep dtgrow dtshrink alpha0 alphashrink tmax tmin   integrator   halfstepback   abcfire  
     0.1     20      1.1     0.5     0.25     0.99      10  0.02 eulerimplicit      yes          no     
Per MPI rank memory allocation (min/avg/max) = 4.024 | 4.024 | 4.024 Mbytes
   Step          Temp          PotEng           Lx             Ly             Lz            Pxx            Pyy            Pzz            Fmax          Fnorm     
       221                     0   -220.2726778553617    9.893675029061592    8.568173892223609    49.91257260573215 -0.04424065581438945  -0.0444068537852522 -5.060449284135446e-06 5.396735255959876e-05 0.0001736239165039192
       222  3.122377181942804e-09   -220.2726778553855    9.893675029061592    8.568173892223609    49.91257260573215 -0.04298592792716886 -0.04355257347797446 -5.047228140623637e-06 5.390960532214334e-05 0.0001707462445220597
Loop time of 0.000691324 on 1 procs for 1 steps with 31 atoms

17.2% CPU use with 1 MPI tasks x no OpenMP threads

Minimization stats:
  Stopping criterion = force tolerance
  Energy initial, next-to-last, final = 
     -220.272677855362  -220.272677855362  -220.272677855385
  Force two-norm initial, final = 0.00017362392 0.00017074624
  Force max component initial, final = 5.3967353e-05 5.3909605e-05
  Final line search alpha, max atom move = 0 0
  Iterations, force evaluations = 1 2

MPI task timing breakdown:
Section |  min time  |  avg time  |  max time  |%varavg| %total
---------------------------------------------------------------
Pair    | 0.00027433 | 0.00027433 | 0.00027433 |   0.0 | 39.68
Neigh   | 0          | 0          | 0          |   0.0 |  0.00
Comm    | 4.867e-06  | 4.867e-06  | 4.867e-06  |   0.0 |  0.70
Output  | 0          | 0          | 0          |   0.0 |  0.00
Modify  | 0          | 0          | 0          |   0.0 |  0.00
Other   |            | 0.0004121  |            |       | 59.61

Nlocal:             31 ave          31 max          31 min
Histogram: 1 0 0 0 0 0 0 0 0 0
Nghost:            273 ave         273 max         273 min
Histogram: 1 0 0 0 0 0 0 0 0 0
Neighs:              0 ave           0 max           0 min
Histogram: 1 0 0 0 0 0 0 0 0 0
FullNghs:         2502 ave        2502 max        2502 min
Histogram: 1 0 0 0 0 0 0 0 0 0

Total # of neighbors = 2502
Ave neighs/atom = 80.709677
Neighbor list builds = 0
Dangerous builds = 0

next nr
jump ${simname}.in loopmin
jump LCBOP.in loopmin

# Minimize the with cg + box/relax
  fix             frb all box/relax tri 0.0 couple none
  min_style       cg
  min_modify      line quadratic
  minimize        0.0 1.0e-3 10000 10000
WARNING: Energy due to 6 extra global DOFs will be included in minimizer energies
 (src/min.cpp:225)
Per MPI rank memory allocation (min/avg/max) = 5.149 | 5.149 | 5.149 Mbytes
   Step          Temp          PotEng           Lx             Ly             Lz            Pxx            Pyy            Pzz            Fmax          Fnorm     
       222  3.122377181942804e-09   -220.2726778553855    9.893675029061592    8.568173892223609    49.91257260573215 -0.04298592804500752 -0.04355257349773861 -5.047228142860487e-06 5.390960532190734e-05 0.0001707462445991726
       223  3.122377181942804e-09   -220.2726778554135    9.893673945625752    8.568172941572104    49.91257260508982  0.04086832430615306  0.04067773675873579 -5.036483456042191e-06 5.383863475003794e-05 0.0001627251726428194
Loop time of 0.000459592 on 1 procs for 1 steps with 31 atoms

21.1% CPU use with 1 MPI tasks x no OpenMP threads

Minimization stats:
  Stopping criterion = force tolerance
  Energy initial, next-to-last, final = 
     -220.272677855385  -220.272677855385  -220.272677855413
  Force two-norm initial, final = 0.00024170483 0.00022898242
  Force max component initial, final = 0.00011501629 0.00010792754
  Final line search alpha, max atom move = 0.86944206 9.383674e-05
  Iterations, force evaluations = 1 2

MPI task timing breakdown:
Section |  min time  |  avg time  |  max time  |%varavg| %total
---------------------------------------------------------------
Pair    | 0.00023689 | 0.00023689 | 0.00023689 |   0.0 | 51.54
Neigh   | 0          | 0          | 0          |   0.0 |  0.00
Comm    | 4.867e-06  | 4.867e-06  | 4.867e-06  |   0.0 |  1.06
Output  | 0          | 0          | 0          |   0.0 |  0.00
Modify  | 0          | 0          | 0          |   0.0 |  0.00
Other   |            | 0.0002178  |            |       | 47.40

Nlocal:             31 ave          31 max          31 min
Histogram: 1 0 0 0 0 0 0 0 0 0
Nghost:            273 ave         273 max         273 min
Histogram: 1 0 0 0 0 0 0 0 0 0
Neighs:              0 ave           0 max           0 min
Histogram: 1 0 0 0 0 0 0 0 0 0
FullNghs:         2502 ave        2502 max        2502 min
Histogram: 1 0 0 0 0 0 0 0 0 0

Total # of neighbors = 2502
Ave neighs/atom = 80.709677
Neighbor list builds = 0
Dangerous builds = 0

# Minimize the with fire
  unfix           frb
  min_style       fire
  minimize        0.0 1.0e-3 10000 10000
  Parameters for fire:
    dmax  delaystep dtgrow dtshrink alpha0 alphashrink tmax tmin   integrator   halfstepback   abcfire  
     0.1     20      1.1     0.5     0.25     0.99      10  0.02 eulerimplicit      yes          no     
Per MPI rank memory allocation (min/avg/max) = 4.024 | 4.024 | 4.024 Mbytes
   Step          Temp          PotEng           Lx             Ly             Lz            Pxx            Pyy            Pzz            Fmax          Fnorm     
       223                     0   -220.2726778554136    9.893673945625752    8.568172941572104    49.91257260508982  0.04086832160803164  0.04067773448099059 -5.040891155047811e-06 5.383863472399214e-05 0.0001627251727132535
       224  2.742683853314984e-09   -220.2726778554352    9.893673945625752    8.568172941572104    49.91257260508982  0.04190771249337314  0.04140053657264534 -5.027737696198345e-06 5.378112596628714e-05 0.0001605732889464672
Loop time of 0.000579273 on 1 procs for 1 steps with 31 atoms

16.6% CPU use with 1 MPI tasks x no OpenMP threads

Minimization stats:
  Stopping criterion = force tolerance
  Energy initial, next-to-last, final = 
     -220.272677855414  -220.272677855414  -220.272677855435
  Force two-norm initial, final = 0.00016272517 0.00016057329
  Force max component initial, final = 5.3838635e-05 5.3781126e-05
  Final line search alpha, max atom move = 0 0
  Iterations, force evaluations = 1 2

MPI task timing breakdown:
Section |  min time  |  avg time  |  max time  |%varavg| %total
---------------------------------------------------------------
Pair    | 0.00023521 | 0.00023521 | 0.00023521 |   0.0 | 40.60
Neigh   | 0          | 0          | 0          |   0.0 |  0.00
Comm    | 4.192e-06  | 4.192e-06  | 4.192e-06  |   0.0 |  0.72
Output  | 0          | 0          | 0          |   0.0 |  0.00
Modify  | 0          | 0          | 0          |   0.0 |  0.00
Other   |            | 0.0003399  |            |       | 58.67

Nlocal:             31 ave          31 max          31 min
Histogram: 1 0 0 0 0 0 0 0 0 0
Nghost:            273 ave         273 max         273 min
Histogram: 1 0 0 0 0 0 0 0 0 0
Neighs:              0 ave           0 max           0 min
Histogram: 1 0 0 0 0 0 0 0 0 0
FullNghs:         2502 ave        2502 max        2502 min
Histogram: 1 0 0 0 0 0 0 0 0 0

Total # of neighbors = 2502
Ave neighs/atom = 80.709677
Neighbor list builds = 0
Dangerous builds = 0

next nr
jump ${simname}.in loopmin
jump LCBOP.in loopmin

# Minimize the with cg + box/relax
  fix             frb all box/relax tri 0.0 couple none
  min_style       cg
  min_modify      line quadratic
  minimize        0.0 1.0e-3 10000 10000
WARNING: Energy due to 6 extra global DOFs will be included in minimizer energies
 (src/min.cpp:225)
Per MPI rank memory allocation (min/avg/max) = 5.149 | 5.149 | 5.149 Mbytes
   Step          Temp          PotEng           Lx             Ly             Lz            Pxx            Pyy            Pzz            Fmax          Fnorm     
       224  2.742683853314984e-09    -220.272677855435    9.893673945625752    8.568172941572104    49.91257260508982  0.04190771253450948  0.04140053655228212 -5.027737697896992e-06 5.378112597339964e-05 0.0001605732889818914
       225  2.742683853314984e-09   -220.2726778554614       9.893675042865    8.568173880309198    49.91257260442514 -0.03998581921268994 -0.04009657739434207 -5.017012517704606e-06 5.371123092345028e-05 0.000163049745825034
Loop time of 0.000515509 on 1 procs for 1 steps with 31 atoms

22.7% CPU use with 1 MPI tasks x no OpenMP threads

Minimization stats:
  Stopping criterion = force tolerance
  Energy initial, next-to-last, final = 
     -220.272677855435  -220.272677855435  -220.272677855461
  Force two-norm initial, final = 0.0002296993 0.00022752208
  Force max component initial, final = 0.00011067241 0.00010588947
  Final line search alpha, max atom move = 0.9035676 9.5678296e-05
  Iterations, force evaluations = 1 2

MPI task timing breakdown:
Section |  min time  |  avg time  |  max time  |%varavg| %total
---------------------------------------------------------------
Pair    | 0.00027204 | 0.00027204 | 0.00027204 |   0.0 | 52.77
Neigh   | 0          | 0          | 0          |   0.0 |  0.00
Comm    | 5.759e-06  | 5.759e-06  | 5.759e-06  |   0.0 |  1.12
Output  | 0          | 0          | 0          |   0.0 |  0.00
Modify  | 0          | 0          | 0          |   0.0 |  0.00
Other   |            | 0.0002377  |            |       | 46.11

Nlocal:             31 ave          31 max          31 min
Histogram: 1 0 0 0 0 0 0 0 0 0
Nghost:            273 ave         273 max         273 min
Histogram: 1 0 0 0 0 0 0 0 0 0
Neighs:              0 ave           0 max           0 min
Histogram: 1 0 0 0 0 0 0 0 0 0
FullNghs:         2502 ave        2502 max        2502 min
Histogram: 1 0 0 0 0 0 0 0 0 0

Total # of neighbors = 2502
Ave neighs/atom = 80.709677
Neighbor list builds = 0
Dangerous builds = 0

# Minimize the with fire
  unfix           frb
  min_style       fire
  minimize        0.0 1.0e-3 10000 10000
  Parameters for fire:
    dmax  delaystep dtgrow dtshrink alpha0 alphashrink tmax tmin   integrator   halfstepback   abcfire  
     0.1     20      1.1     0.5     0.25     0.99      10  0.02 eulerimplicit      yes          no     
Per MPI rank memory allocation (min/avg/max) = 4.024 | 4.024 | 4.024 Mbytes
   Step          Temp          PotEng           Lx             Ly             Lz            Pxx            Pyy            Pzz            Fmax          Fnorm     
       225                     0   -220.2726778554614       9.893675042865    8.568173880309198    49.91257260442514  -0.0399858211782806 -0.04009657927809333 -5.021398099644361e-06 5.371123092898855e-05 0.0001630497458759687
       226  2.753635931623459e-09   -220.2726778554827       9.893675042865    8.568173880309198    49.91257260442514  -0.0388379161684136 -0.03919804061823896 -5.008310065288894e-06 5.365389639074343e-05 0.0001611126570509417
Loop time of 0.000481686 on 1 procs for 1 steps with 31 atoms

19.5% CPU use with 1 MPI tasks x no OpenMP threads

Minimization stats:
  Stopping criterion = force tolerance
  Energy initial, next-to-last, final = 
     -220.272677855461  -220.272677855461  -220.272677855483
  Force two-norm initial, final = 0.00016304975 0.00016111266
  Force max component initial, final = 5.3711231e-05 5.3653896e-05
  Final line search alpha, max atom move = 0 0
  Iterations, force evaluations = 1 2

MPI task timing breakdown:
Section |  min time  |  avg time  |  max time  |%varavg| %total
---------------------------------------------------------------
Pair    | 0.00022837 | 0.00022837 | 0.00022837 |   0.0 | 47.41
Neigh   | 0          | 0          | 0          |   0.0 |  0.00
Comm    | 3.808e-06  | 3.808e-06  | 3.808e-06  |   0.0 |  0.79
Output  | 0          | 0          | 0          |   0.0 |  0.00
Modify  | 0          | 0          | 0          |   0.0 |  0.00
Other   |            | 0.0002495  |            |       | 51.80

Nlocal:             31 ave          31 max          31 min
Histogram: 1 0 0 0 0 0 0 0 0 0
Nghost:            273 ave         273 max         273 min
Histogram: 1 0 0 0 0 0 0 0 0 0
Neighs:              0 ave           0 max           0 min
Histogram: 1 0 0 0 0 0 0 0 0 0
FullNghs:         2502 ave        2502 max        2502 min
Histogram: 1 0 0 0 0 0 0 0 0 0

Total # of neighbors = 2502
Ave neighs/atom = 80.709677
Neighbor list builds = 0
Dangerous builds = 0

next nr
jump ${simname}.in loopmin
jump LCBOP.in loopmin

# Minimize the with cg + box/relax
  fix             frb all box/relax tri 0.0 couple none
  min_style       cg
  min_modify      line quadratic
  minimize        0.0 1.0e-3 10000 10000
WARNING: Energy due to 6 extra global DOFs will be included in minimizer energies
 (src/min.cpp:225)
Per MPI rank memory allocation (min/avg/max) = 5.149 | 5.149 | 5.149 Mbytes
   Step          Temp          PotEng           Lx             Ly             Lz            Pxx            Pyy            Pzz            Fmax          Fnorm     
       226  2.753635931623459e-09   -220.2726778554827       9.893675042865    8.568173880309198    49.91257260442514 -0.03883791622149985 -0.03919804060762381 -5.008310067551082e-06 5.365389638325878e-05 0.0001611126570349222
       227  2.753635931623459e-09   -220.2726778555081    9.893674017522033    8.568172984102421    49.91257260375751  0.04050321173637342  0.04040018022610573 -4.997186589417695e-06 5.358025527549324e-05 0.0001544448835483079
Loop time of 0.000468659 on 1 procs for 1 steps with 31 atoms

21.3% CPU use with 1 MPI tasks x no OpenMP threads

Minimization stats:
  Stopping criterion = force tolerance
  Energy initial, next-to-last, final = 
     -220.272677855483  -220.272677855483  -220.272677855508
  Force two-norm initial, final = 0.00022327182 0.00022216697
  Force max component initial, final = 0.00010351657 0.00010696333
  Final line search alpha, max atom move = 0.96602888 0.00010332966
  Iterations, force evaluations = 1 2

MPI task timing breakdown:
Section |  min time  |  avg time  |  max time  |%varavg| %total
---------------------------------------------------------------
Pair    | 0.00023574 | 0.00023574 | 0.00023574 |   0.0 | 50.30
Neigh   | 0          | 0          | 0          |   0.0 |  0.00
Comm    | 4.827e-06  | 4.827e-06  | 4.827e-06  |   0.0 |  1.03
Output  | 0          | 0          | 0          |   0.0 |  0.00
Modify  | 0          | 0          | 0          |   0.0 |  0.00
Other   |            | 0.0002281  |            |       | 48.67

Nlocal:             31 ave          31 max          31 min
Histogram: 1 0 0 0 0 0 0 0 0 0
Nghost:            273 ave         273 max         273 min
Histogram: 1 0 0 0 0 0 0 0 0 0
Neighs:              0 ave           0 max           0 min
Histogram: 1 0 0 0 0 0 0 0 0 0
FullNghs:         2502 ave        2502 max        2502 min
Histogram: 1 0 0 0 0 0 0 0 0 0

Total # of neighbors = 2502
Ave neighs/atom = 80.709677
Neighbor list builds = 0
Dangerous builds = 0

# Minimize the with fire
  unfix           frb
  min_style       fire
  minimize        0.0 1.0e-3 10000 10000
  Parameters for fire:
    dmax  delaystep dtgrow dtshrink alpha0 alphashrink tmax tmin   integrator   halfstepback   abcfire  
     0.1     20      1.1     0.5     0.25     0.99      10  0.02 eulerimplicit      yes          no     
Per MPI rank memory allocation (min/avg/max) = 4.024 | 4.024 | 4.024 Mbytes
   Step          Temp          PotEng           Lx             Ly             Lz            Pxx            Pyy            Pzz            Fmax          Fnorm     
       227                     0   -220.2726778555081    9.893674017522033    8.568172984102421    49.91257260375751  0.04050320977467279  0.04040017846308185 -5.001549902636773e-06 5.358025527549262e-05 0.0001544448835021723
       228  2.470661901990625e-09   -220.2726778555271    9.893674017522033    8.568172984102421    49.91257260375751  0.04145527902046253  0.04115782387629739 -4.988530374255836e-06 5.352316285925391e-05 0.0001529632431483755
Loop time of 0.000516456 on 1 procs for 1 steps with 31 atoms

70.7% CPU use with 1 MPI tasks x no OpenMP threads

Minimization stats:
  Stopping criterion = force tolerance
  Energy initial, next-to-last, final = 
     -220.272677855508  -220.272677855508  -220.272677855527
  Force two-norm initial, final = 0.00015444488 0.00015296324
  Force max component initial, final = 5.3580255e-05 5.3523163e-05
  Final line search alpha, max atom move = 0 0
  Iterations, force evaluations = 1 2

MPI task timing breakdown:
Section |  min time  |  avg time  |  max time  |%varavg| %total
---------------------------------------------------------------
Pair    | 0.00023099 | 0.00023099 | 0.00023099 |   0.0 | 44.73
Neigh   | 0          | 0          | 0          |   0.0 |  0.00
Comm    | 4.97e-06   | 4.97e-06   | 4.97e-06   |   0.0 |  0.96
Output  | 0          | 0          | 0          |   0.0 |  0.00
Modify  | 0          | 0          | 0          |   0.0 |  0.00
Other   |            | 0.0002805  |            |       | 54.31

Nlocal:             31 ave          31 max          31 min
Histogram: 1 0 0 0 0 0 0 0 0 0
Nghost:            273 ave         273 max         273 min
Histogram: 1 0 0 0 0 0 0 0 0 0
Neighs:              0 ave           0 max           0 min
Histogram: 1 0 0 0 0 0 0 0 0 0
FullNghs:         2502 ave        2502 max        2502 min
Histogram: 1 0 0 0 0 0 0 0 0 0

Total # of neighbors = 2502
Ave neighs/atom = 80.709677
Neighbor list builds = 0
Dangerous builds = 0

next nr
jump ${simname}.in loopmin
jump LCBOP.in loopmin

# Minimize the with cg + box/relax
  fix             frb all box/relax tri 0.0 couple none
  min_style       cg
  min_modify      line quadratic
  minimize        0.0 1.0e-3 10000 10000
WARNING: Energy due to 6 extra global DOFs will be included in minimizer energies
 (src/min.cpp:225)
Per MPI rank memory allocation (min/avg/max) = 5.149 | 5.149 | 5.149 Mbytes
   Step          Temp          PotEng           Lx             Ly             Lz            Pxx            Pyy            Pzz            Fmax          Fnorm     
       228  2.470661901990625e-09   -220.2726778555271    9.893674017522033    8.568172984102421    49.91257260375751  0.04145527908069563  0.04115782376182717 -4.988530373013606e-06 5.352316285927152e-05 0.0001529632431681759
       229  2.470661901990625e-09   -220.2726778555507    9.893675063514968    8.568173883459052    49.91257260312196 -0.03674973333034767 -0.03683140269109425 -4.978299383474135e-06 5.345628770640177e-05 0.0001558142285119797
Loop time of 0.000691795 on 1 procs for 1 steps with 31 atoms

61.1% CPU use with 1 MPI tasks x no OpenMP threads

Minimization stats:
  Stopping criterion = force tolerance
  Energy initial, next-to-last, final = 
     -220.272677855527  -220.272677855527  -220.272677855551
  Force two-norm initial, final = 0.0002232734 0.0002134749
  Force max component initial, final = 0.00010947759 9.7266602e-05
  Final line search alpha, max atom move = 0.91342891 8.8846126e-05
  Iterations, force evaluations = 1 2

MPI task timing breakdown:
Section |  min time  |  avg time  |  max time  |%varavg| %total
---------------------------------------------------------------
Pair    | 0.00029291 | 0.00029291 | 0.00029291 |   0.0 | 42.34
Neigh   | 0          | 0          | 0          |   0.0 |  0.00
Comm    | 5.999e-06  | 5.999e-06  | 5.999e-06  |   0.0 |  0.87
Output  | 0          | 0          | 0          |   0.0 |  0.00
Modify  | 0          | 0          | 0          |   0.0 |  0.00
Other   |            | 0.0003929  |            |       | 56.79

Nlocal:             31 ave          31 max          31 min
Histogram: 1 0 0 0 0 0 0 0 0 0
Nghost:            273 ave         273 max         273 min
Histogram: 1 0 0 0 0 0 0 0 0 0
Neighs:              0 ave           0 max           0 min
Histogram: 1 0 0 0 0 0 0 0 0 0
FullNghs:         2502 ave        2502 max        2502 min
Histogram: 1 0 0 0 0 0 0 0 0 0

Total # of neighbors = 2502
Ave neighs/atom = 80.709677
Neighbor list builds = 0
Dangerous builds = 0

# Minimize the with fire
  unfix           frb
  min_style       fire
  minimize        0.0 1.0e-3 10000 10000
  Parameters for fire:
    dmax  delaystep dtgrow dtshrink alpha0 alphashrink tmax tmin   integrator   halfstepback   abcfire  
     0.1     20      1.1     0.5     0.25     0.99      10  0.02 eulerimplicit      yes          no     
Per MPI rank memory allocation (min/avg/max) = 4.024 | 4.024 | 4.024 Mbytes
[...]
FullNghs:         2502 ave        2502 max        2502 min
Histogram: 1 0 0 0 0 0 0 0 0 0

Total # of neighbors = 2502
Ave neighs/atom = 80.709677
Neighbor list builds = 0
Dangerous builds = 0

# Minimize the with fire
  unfix           frb
  min_style       fire
  minimize        0.0 1.0e-3 10000 10000
  Parameters for fire:
    dmax  delaystep dtgrow dtshrink alpha0 alphashrink tmax tmin   integrator   halfstepback   abcfire  
     0.1     20      1.1     0.5     0.25     0.99      10  0.02 eulerimplicit      yes          no     
Per MPI rank memory allocation (min/avg/max) = 4.024 | 4.024 | 4.024 Mbytes
   Step          Temp          PotEng           Lx             Ly             Lz            Pxx            Pyy            Pzz            Fmax          Fnorm     
       393                     0    -220.272677858004    9.893675723854129    8.568174487868582    49.91257253372542 -0.009022908393236774 -0.009018363494652676 -3.352129164385531e-06 4.190134197245901e-05 9.202941303661016e-05
       394  8.772423137945599e-10    -220.272677858011    9.893675723854129    8.568174487868582    49.91257253372542 -0.008934991284060157 -0.008921912394522146 -3.34446215161901e-06 4.18618054794891e-05 9.191903230200445e-05
Loop time of 0.00055829 on 1 procs for 1 steps with 31 atoms

62.2% CPU use with 1 MPI tasks x no OpenMP threads

Minimization stats:
  Stopping criterion = force tolerance
  Energy initial, next-to-last, final = 
     -220.272677858004  -220.272677858004  -220.272677858011
  Force two-norm initial, final = 9.2029413e-05 9.1919032e-05
  Force max component initial, final = 4.1901342e-05 4.1861805e-05
  Final line search alpha, max atom move = 0 0
  Iterations, force evaluations = 1 2

MPI task timing breakdown:
Section |  min time  |  avg time  |  max time  |%varavg| %total
---------------------------------------------------------------
Pair    | 0.00024546 | 0.00024546 | 0.00024546 |   0.0 | 43.97
Neigh   | 0          | 0          | 0          |   0.0 |  0.00
Comm    | 3.92e-06   | 3.92e-06   | 3.92e-06   |   0.0 |  0.70
Output  | 0          | 0          | 0          |   0.0 |  0.00
Modify  | 0          | 0          | 0          |   0.0 |  0.00
Other   |            | 0.0003089  |            |       | 55.33

Nlocal:             31 ave          31 max          31 min
Histogram: 1 0 0 0 0 0 0 0 0 0
Nghost:            273 ave         273 max         273 min
Histogram: 1 0 0 0 0 0 0 0 0 0
Neighs:              0 ave           0 max           0 min
Histogram: 1 0 0 0 0 0 0 0 0 0
FullNghs:         2502 ave        2502 max        2502 min
Histogram: 1 0 0 0 0 0 0 0 0 0

Total # of neighbors = 2502
Ave neighs/atom = 80.709677
Neighbor list builds = 0
Dangerous builds = 0

next nr
jump ${simname}.in loopmin
jump LCBOP.in loopmin

# Minimize the with cg + box/relax
  fix             frb all box/relax tri 0.0 couple none
  min_style       cg
  min_modify      line quadratic
  minimize        0.0 1.0e-3 10000 10000
WARNING: Energy due to 6 extra global DOFs will be included in minimizer energies
 (src/min.cpp:225)
Per MPI rank memory allocation (min/avg/max) = 5.149 | 5.149 | 5.149 Mbytes
   Step          Temp          PotEng           Lx             Ly             Lz            Pxx            Pyy            Pzz            Fmax          Fnorm     
       394  8.772423137945599e-10    -220.272677858011    9.893675723854129    8.568174487868582    49.91257253372542 -0.008934991381908697 -0.00892191234083157 -3.344462152668154e-06  4.1861805474552e-05 9.191903230316993e-05
       395  8.772423137945599e-10   -220.2726778580275    9.893674828547704    8.568173713645447    49.91257253203347  0.05942745893138257  0.05940691261808412 -3.320022352161817e-06 4.167197998677361e-05 9.186024792230757e-05
Loop time of 0.000662345 on 1 procs for 1 steps with 31 atoms

56.8% CPU use with 1 MPI tasks x no OpenMP threads

Minimization stats:
  Stopping criterion = force tolerance
  Energy initial, next-to-last, final = 
     -220.272677858011  -220.272677858011  -220.272677858028
  Force two-norm initial, final = 9.8483655e-05 0.00025248135
  Force max component initial, final = 4.1861805e-05 0.00015693965
  Final line search alpha, max atom move = 1 0.00015693965
  Iterations, force evaluations = 1 2

MPI task timing breakdown:
Section |  min time  |  avg time  |  max time  |%varavg| %total
---------------------------------------------------------------
Pair    | 0.00026085 | 0.00026085 | 0.00026085 |   0.0 | 39.38
Neigh   | 0          | 0          | 0          |   0.0 |  0.00
Comm    | 4.573e-06  | 4.573e-06  | 4.573e-06  |   0.0 |  0.69
Output  | 0          | 0          | 0          |   0.0 |  0.00
Modify  | 0          | 0          | 0          |   0.0 |  0.00
Other   |            | 0.0003969  |            |       | 59.93

Nlocal:             31 ave          31 max          31 min
Histogram: 1 0 0 0 0 0 0 0 0 0
Nghost:            273 ave         273 max         273 min
Histogram: 1 0 0 0 0 0 0 0 0 0
Neighs:              0 ave           0 max           0 min
Histogram: 1 0 0 0 0 0 0 0 0 0
FullNghs:         2502 ave        2502 max        2502 min
Histogram: 1 0 0 0 0 0 0 0 0 0

Total # of neighbors = 2502
Ave neighs/atom = 80.709677
Neighbor list builds = 0
Dangerous builds = 0

# Minimize the with fire
  unfix           frb
  min_style       fire
  minimize        0.0 1.0e-3 10000 10000
  Parameters for fire:
    dmax  delaystep dtgrow dtshrink alpha0 alphashrink tmax tmin   integrator   halfstepback   abcfire  
     0.1     20      1.1     0.5     0.25     0.99      10  0.02 eulerimplicit      yes          no     
Per MPI rank memory allocation (min/avg/max) = 4.024 | 4.024 | 4.024 Mbytes
   Step          Temp          PotEng           Lx             Ly             Lz            Pxx            Pyy            Pzz            Fmax          Fnorm     
       395                     0   -220.2726778580276    9.893674828547704    8.568173713645447    49.91257253203347  0.05942745896721029   0.0594069126511449 -3.322578773306053e-06 4.167197998677204e-05 9.18602479183434e-05
       396  8.740202480056447e-10   -220.2726778580346    9.893674828547704    8.568173713645447    49.91257253203347  0.05937960181019622  0.05936772796060871 -3.315003354594292e-06 4.163278074808499e-05 9.166535522174369e-05
Loop time of 0.000593911 on 1 procs for 1 steps with 31 atoms

53.0% CPU use with 1 MPI tasks x no OpenMP threads

Minimization stats:
  Stopping criterion = force tolerance
  Energy initial, next-to-last, final = 
     -220.272677858028  -220.272677858028  -220.272677858035
  Force two-norm initial, final = 9.1860248e-05 9.1665355e-05
  Force max component initial, final = 4.167198e-05 4.1632781e-05
  Final line search alpha, max atom move = 0 0
  Iterations, force evaluations = 1 2

MPI task timing breakdown:
Section |  min time  |  avg time  |  max time  |%varavg| %total
---------------------------------------------------------------
Pair    | 0.00022668 | 0.00022668 | 0.00022668 |   0.0 | 38.17
Neigh   | 0          | 0          | 0          |   0.0 |  0.00
Comm    | 7.92e-06   | 7.92e-06   | 7.92e-06   |   0.0 |  1.33
Output  | 0          | 0          | 0          |   0.0 |  0.00
Modify  | 0          | 0          | 0          |   0.0 |  0.00
Other   |            | 0.0003593  |            |       | 60.50

Nlocal:             31 ave          31 max          31 min
Histogram: 1 0 0 0 0 0 0 0 0 0
Nghost:            273 ave         273 max         273 min
Histogram: 1 0 0 0 0 0 0 0 0 0
Neighs:              0 ave           0 max           0 min
Histogram: 1 0 0 0 0 0 0 0 0 0
FullNghs:         2502 ave        2502 max        2502 min
Histogram: 1 0 0 0 0 0 0 0 0 0

Total # of neighbors = 2502
Ave neighs/atom = 80.709677
Neighbor list builds = 0
Dangerous builds = 0

next nr
jump ${simname}.in loopmin
jump LCBOP.in loopmin

# Minimize the with cg + box/relax
  fix             frb all box/relax tri 0.0 couple none
  min_style       cg
  min_modify      line quadratic
  minimize        0.0 1.0e-3 10000 10000
WARNING: Energy due to 6 extra global DOFs will be included in minimizer energies
 (src/min.cpp:225)
Per MPI rank memory allocation (min/avg/max) = 5.149 | 5.149 | 5.149 Mbytes
   Step          Temp          PotEng           Lx             Ly             Lz            Pxx            Pyy            Pzz            Fmax          Fnorm     
       396  8.740202480056447e-10   -220.2726778580345    9.893674828547704    8.568173713645447    49.91257253203347  0.05937960196171959  0.05936772804451044 -3.315003353539053e-06 4.163278074809132e-05 9.166535520883912e-05
       397  8.740202480056447e-10   -220.2726778580545    9.893675727811711    8.568174492275187       49.91257253178 -0.008915328085396966 -0.008910992810767486 -3.311506176616944e-06 4.160587139836761e-05 9.129075518708581e-05
Loop time of 0.000511181 on 1 procs for 1 steps with 31 atoms

66.7% CPU use with 1 MPI tasks x no OpenMP threads

Minimization stats:
  Stopping criterion = force tolerance
  Energy initial, next-to-last, final = 
     -220.272677858035  -220.272677858035  -220.272677858055
  Force two-norm initial, final = 0.00025192848 9.7897242e-05
  Force max component initial, final = 0.00015681326 4.1605871e-05
  Final line search alpha, max atom move = 0.63770119 2.6532114e-05
  Iterations, force evaluations = 1 2

MPI task timing breakdown:
Section |  min time  |  avg time  |  max time  |%varavg| %total
---------------------------------------------------------------
Pair    | 0.00023453 | 0.00023453 | 0.00023453 |   0.0 | 45.88
Neigh   | 0          | 0          | 0          |   0.0 |  0.00
Comm    | 4.171e-06  | 4.171e-06  | 4.171e-06  |   0.0 |  0.82
Output  | 0          | 0          | 0          |   0.0 |  0.00
Modify  | 0          | 0          | 0          |   0.0 |  0.00
Other   |            | 0.0002725  |            |       | 53.30

Nlocal:             31 ave          31 max          31 min
Histogram: 1 0 0 0 0 0 0 0 0 0
Nghost:            273 ave         273 max         273 min
Histogram: 1 0 0 0 0 0 0 0 0 0
Neighs:              0 ave           0 max           0 min
Histogram: 1 0 0 0 0 0 0 0 0 0
FullNghs:         2502 ave        2502 max        2502 min
Histogram: 1 0 0 0 0 0 0 0 0 0

Total # of neighbors = 2502
Ave neighs/atom = 80.709677
Neighbor list builds = 0
Dangerous builds = 0

# Minimize the with fire
  unfix           frb
  min_style       fire
  minimize        0.0 1.0e-3 10000 10000
  Parameters for fire:
    dmax  delaystep dtgrow dtshrink alpha0 alphashrink tmax tmin   integrator   halfstepback   abcfire  
     0.1     20      1.1     0.5     0.25     0.99      10  0.02 eulerimplicit      yes          no     
Per MPI rank memory allocation (min/avg/max) = 4.024 | 4.024 | 4.024 Mbytes
   Step          Temp          PotEng           Lx             Ly             Lz            Pxx            Pyy            Pzz            Fmax          Fnorm     
       397                     0   -220.2726778580546    9.893675727811711    8.568174492275187       49.91257253178 -0.008915328099461193 -0.008910992862481374 -3.314032373837401e-06 4.160587139858935e-05 9.129075518472441e-05
       398  8.632167659723841e-10   -220.2726778580615    9.893675727811711    8.568174492275187       49.91257253178 -0.008832492080256138 -0.00881995722874397 -3.306482539080896e-06 4.156673736271239e-05 9.118224148858937e-05
Loop time of 0.000531848 on 1 procs for 1 steps with 31 atoms

65.2% CPU use with 1 MPI tasks x no OpenMP threads

Minimization stats:
  Stopping criterion = force tolerance
  Energy initial, next-to-last, final = 
     -220.272677858055  -220.272677858055  -220.272677858062
  Force two-norm initial, final = 9.1290755e-05 9.1182241e-05
  Force max component initial, final = 4.1605871e-05 4.1566737e-05
  Final line search alpha, max atom move = 0 0
  Iterations, force evaluations = 1 2

MPI task timing breakdown:
Section |  min time  |  avg time  |  max time  |%varavg| %total
---------------------------------------------------------------
Pair    | 0.00022751 | 0.00022751 | 0.00022751 |   0.0 | 42.78
Neigh   | 0          | 0          | 0          |   0.0 |  0.00
Comm    | 3.753e-06  | 3.753e-06  | 3.753e-06  |   0.0 |  0.71
Output  | 0          | 0          | 0          |   0.0 |  0.00
Modify  | 0          | 0          | 0          |   0.0 |  0.00
Other   |            | 0.0003006  |            |       | 56.52

Nlocal:             31 ave          31 max          31 min
Histogram: 1 0 0 0 0 0 0 0 0 0
Nghost:            273 ave         273 max         273 min
Histogram: 1 0 0 0 0 0 0 0 0 0
Neighs:              0 ave           0 max           0 min
Histogram: 1 0 0 0 0 0 0 0 0 0
FullNghs:         2502 ave        2502 max        2502 min
Histogram: 1 0 0 0 0 0 0 0 0 0

Total # of neighbors = 2502
Ave neighs/atom = 80.709677
Neighbor list builds = 0
Dangerous builds = 0

next nr
jump ${simname}.in loopmin
jump LCBOP.in loopmin

# Minimize the with cg + box/relax
  fix             frb all box/relax tri 0.0 couple none
  min_style       cg
  min_modify      line quadratic
  minimize        0.0 1.0e-3 10000 10000
Per MPI rank memory allocation (min/avg/max) = 5.149 | 5.149 | 5.149 Mbytes
   Step          Temp          PotEng           Lx             Ly             Lz            Pxx            Pyy            Pzz            Fmax          Fnorm     
WARNING: Too many warnings: 101 vs 100. All future warnings will be suppressed (src/thermo.cpp:472)
       398  8.632167659723841e-10   -220.2726778580615    9.893675727811711    8.568174492275187       49.91257253178 -0.008832492088296322 -0.008819957370151401 -3.306482540738486e-06 4.156673737360075e-05 9.118224149787299e-05
       399  8.632167659723841e-10   -220.2726778580784    9.893674836838677    8.568173721764939    49.91257253009604  0.05918014126875236  0.05916033154098073 -3.282254784520351e-06 4.137758674358972e-05 9.115728439429676e-05
Loop time of 0.000719354 on 1 procs for 1 steps with 31 atoms

49.6% CPU use with 1 MPI tasks x no OpenMP threads

Minimization stats:
  Stopping criterion = force tolerance
  Energy initial, next-to-last, final = 
     -220.272677858061  -220.272677858061  -220.272677858078
  Force two-norm initial, final = 9.7649291e-05 0.00025131498
  Force max component initial, final = 4.1566737e-05 0.00015628652
  Final line search alpha, max atom move = 1 0.00015628652
  Iterations, force evaluations = 1 2

MPI task timing breakdown:
Section |  min time  |  avg time  |  max time  |%varavg| %total
---------------------------------------------------------------
Pair    | 0.00025044 | 0.00025044 | 0.00025044 |   0.0 | 34.81
Neigh   | 0          | 0          | 0          |   0.0 |  0.00
Comm    | 4.144e-06  | 4.144e-06  | 4.144e-06  |   0.0 |  0.58
Output  | 0          | 0          | 0          |   0.0 |  0.00
Modify  | 0          | 0          | 0          |   0.0 |  0.00
Other   |            | 0.0004648  |            |       | 64.61

Nlocal:             31 ave          31 max          31 min
Histogram: 1 0 0 0 0 0 0 0 0 0
Nghost:            273 ave         273 max         273 min
Histogram: 1 0 0 0 0 0 0 0 0 0
Neighs:              0 ave           0 max           0 min
Histogram: 1 0 0 0 0 0 0 0 0 0
FullNghs:         2502 ave        2502 max        2502 min
Histogram: 1 0 0 0 0 0 0 0 0 0

Total # of neighbors = 2502
Ave neighs/atom = 80.709677
Neighbor list builds = 0
Dangerous builds = 0

# Minimize the with fire
  unfix           frb
  min_style       fire
  minimize        0.0 1.0e-3 10000 10000
  Parameters for fire:
    dmax  delaystep dtgrow dtshrink alpha0 alphashrink tmax tmin   integrator   halfstepback   abcfire  
     0.1     20      1.1     0.5     0.25     0.99      10  0.02 eulerimplicit      yes          no     
Per MPI rank memory allocation (min/avg/max) = 4.024 | 4.024 | 4.024 Mbytes
   Step          Temp          PotEng           Lx             Ly             Lz            Pxx            Pyy            Pzz            Fmax          Fnorm     
       399                     0   -220.2726778580785    9.893674836838677    8.568173721764939    49.91257253009604  0.05918014130483133   0.0591603315411363 -3.28477213239663e-06 4.137758675726315e-05 9.115728440483677e-05
       400  8.606944955057337e-10   -220.2726778580849    9.893674836838677    8.568173721764939    49.91257253009604  0.05912817829104754  0.05911670033946301 -3.277312761667569e-06 4.133878687110553e-05 9.096336827708048e-05
Loop time of 0.00061904 on 1 procs for 1 steps with 31 atoms

50.7% CPU use with 1 MPI tasks x no OpenMP threads

Minimization stats:
  Stopping criterion = force tolerance
  Energy initial, next-to-last, final = 
     -220.272677858078  -220.272677858078  -220.272677858085
  Force two-norm initial, final = 9.1157284e-05 9.0963368e-05
  Force max component initial, final = 4.1377587e-05 4.1338787e-05
  Final line search alpha, max atom move = 0 0
  Iterations, force evaluations = 1 2

MPI task timing breakdown:
Section |  min time  |  avg time  |  max time  |%varavg| %total
---------------------------------------------------------------
Pair    | 0.00021322 | 0.00021322 | 0.00021322 |   0.0 | 34.44
Neigh   | 0          | 0          | 0          |   0.0 |  0.00
Comm    | 4.907e-06  | 4.907e-06  | 4.907e-06  |   0.0 |  0.79
Output  | 0          | 0          | 0          |   0.0 |  0.00
Modify  | 0          | 0          | 0          |   0.0 |  0.00
Other   |            | 0.0004009  |            |       | 64.76

Nlocal:             31 ave          31 max          31 min
Histogram: 1 0 0 0 0 0 0 0 0 0
Nghost:            273 ave         273 max         273 min
Histogram: 1 0 0 0 0 0 0 0 0 0
Neighs:              0 ave           0 max           0 min
Histogram: 1 0 0 0 0 0 0 0 0 0
FullNghs:         2502 ave        2502 max        2502 min
Histogram: 1 0 0 0 0 0 0 0 0 0

Total # of neighbors = 2502
Ave neighs/atom = 80.709677
Neighbor list builds = 0
Dangerous builds = 0

next nr
jump ${simname}.in loopmin
jump LCBOP.in loopmin

variable        energy equal pe
fix             output all ave/time 1 1 1 v_energy file ${simname}_energy.data
fix             output all ave/time 1 1 1 v_energy file LCBOP_energy.data
dump            dump1 all custom 1 ${simname}.lammpstrj id type x y z fx fy fz
dump            dump1 all custom 1 LCBOP.lammpstrj id type x y z fx fy fz
dump_modify     dump1 sort id

fix             nve all nve
run             0
Per MPI rank memory allocation (min/avg/max) = 4.024 | 4.024 | 4.024 Mbytes
   Step          Temp          PotEng           Lx             Ly             Lz            Pxx            Pyy            Pzz            Fmax          Fnorm     
       400  8.606944955057337e-10   -220.2726778580849    9.893674836838677    8.568173721764939    49.91257253009604    0.059128178384093  0.05911670037797183 -3.277312762269601e-06 4.133878687646087e-05 9.09633683092842e-05
Loop time of 7.41e-07 on 1 procs for 0 steps with 31 atoms

539.8% CPU use with 1 MPI tasks x no OpenMP threads

MPI task timing breakdown:
Section |  min time  |  avg time  |  max time  |%varavg| %total
---------------------------------------------------------------
Pair    | 0          | 0          | 0          |   0.0 |  0.00
Neigh   | 0          | 0          | 0          |   0.0 |  0.00
Comm    | 0          | 0          | 0          |   0.0 |  0.00
Output  | 0          | 0          | 0          |   0.0 |  0.00
Modify  | 0          | 0          | 0          |   0.0 |  0.00
Other   |            | 7.41e-07   |            |       |100.00

Nlocal:             31 ave          31 max          31 min
Histogram: 1 0 0 0 0 0 0 0 0 0
Nghost:            273 ave         273 max         273 min
Histogram: 1 0 0 0 0 0 0 0 0 0
Neighs:              0 ave           0 max           0 min
Histogram: 1 0 0 0 0 0 0 0 0 0
FullNghs:         2502 ave        2502 max        2502 min
Histogram: 1 0 0 0 0 0 0 0 0 0

Total # of neighbors = 2502
Ave neighs/atom = 80.709677
Neighbor list builds = 0
Dangerous builds = 0
Total wall time: 0:00:00
