ITEM: TIMESTEP
400
ITEM: NUMBER OF ATOMS
31
ITEM: BOX BOUNDS xy xz yz pp pp pp
-3.8732748569331475e-02 1.4801973459362053e+01 4.9468381697934865e+00
-2.9238720682470857e-02 8.5390799520395113e+00 1.9320129922155982e-04
2.9254519994050527e-06 4.9912575455548044e+01 1.4495095704312192e-04
ITEM: ATOMS id type x y z fx fy fz
1 1 -0.0337694 -0.0265946 21.9615 2.00566e-06 2.30695e-07 5.01161e-06
2 1 1.19993 0.685685 21.9615 -1.39875e-06 2.63589e-07 1.00964e-05
3 1 1.20183 2.10919 21.9615 1.21414e-06 1.10737e-07 1.68448e-05
4 1 2.43368 2.82259 21.9615 -1.66442e-06 -1.2892e-07 3.02321e-06
5 1 2.43368 4.24715 21.9615 1.63661e-06 -4.74362e-07 4.02461e-06
6 1 3.65441 4.96225 21.9615 -2.19719e-06 1.30782e-07 -1.63365e-05
7 1 13.5635 6.39638 21.9615 1.5567e-06 -1.39536e-07 -1.87048e-05
8 1 4.90413 7.12684 21.9615 -1.74089e-06 7.08873e-07 -1.20315e-05
9 1 2.43368 -0.0244241 21.9615 1.38308e-06 3.22734e-07 3.57057e-06
10 1 3.66742 0.685685 21.9615 -1.46558e-06 -3.65267e-09 -1.9447e-06
11 1 3.66552 2.10919 21.9615 1.07855e-06 -1.61172e-07 -1.27031e-05
12 1 4.90031 2.8221 21.9615 -2.07863e-06 -3.72289e-07 -2.5916e-05
13 1 4.88098 4.2357 21.9615 1.08144e-06 -2.67857e-07 -1.15577e-05
14 1 6.0311 5.03313 21.9614 6.44831e-07 -2.27537e-06 1.62619e-05
15 1 6.14663 6.42788 21.9615 1.8127e-06 4.19922e-07 1.75883e-06
16 1 7.38052 7.11794 21.9615 -1.52708e-06 3.85934e-07 1.03903e-06
17 1 4.90112 -0.0265946 21.9615 1.3603e-06 1.76088e-07 4.58793e-06
18 1 6.13079 0.673034 21.9615 -1.1331e-06 -1.03832e-06 -1.55231e-05
19 1 6.11486 2.09855 21.9615 5.56631e-07 -1.38213e-06 -2.85753e-05
20 1 7.38052 2.69588 21.9616 -3.6475e-06 1.59036e-06 -8.61036e-06
21 1 8.72993 5.03313 21.9618 -2.43016e-06 9.02741e-07 -4.13388e-05
22 1 8.6144 6.42788 21.9616 2.32345e-06 2.12734e-06 -5.26925e-06
23 1 9.8569 7.12684 21.9616 -4.45155e-07 3.34064e-08 2.10974e-05
24 1 12.3274 8.53754 21.9615 1.47643e-06 -3.23289e-07 -3.61371e-07
25 1 8.63024 0.673034 21.9615 -1.25009e-06 -5.63123e-07 1.68874e-05
26 1 8.64617 2.09855 21.9615 2.14487e-06 -4.37104e-07 2.18372e-05
27 1 9.86072 2.8221 21.9616 -1.98272e-06 2.0572e-07 2.27611e-05
28 1 9.88005 4.2357 21.9616 2.99872e-06 -3.56966e-07 2.77526e-06
29 1 11.1066 4.96225 21.9616 -1.0833e-06 3.9781e-07 2.1113e-05
30 1 11.0912 6.39638 21.9615 1.77704e-06 7.80872e-08 2.53509e-05
31 1 12.3274 7.1101 21.9615 -1.00658e-06 -1.60726e-07 8.3115e-07
