ITEM: TIMESTEP
23831
ITEM: NUMBER OF ATOMS
31
ITEM: BOX BOUNDS xy xz yz pp pp pp
-1.4349285476063409e-01 1.5011556567819593e+01 5.0515975166028566e+00
-1.1996363997748533e-01 8.6298179494718923e+00 2.5685675609585619e-04
2.4916625572061409e-06 4.9912575889337489e+01 1.5802909436554130e-04
ITEM: ATOMS id type x y z fx fy fz
1 1 -0.135257 -0.115445 21.9615 -4.87296e-05 7.34688e-06 9.48571e-06
2 1 1.12582 0.612635 21.9615 1.78833e-06 -1.16357e-05 7.7504e-06
3 1 1.13936 2.05453 21.9615 -1.98713e-05 2.29568e-05 -5.93818e-06
4 1 2.3813 2.7872 21.9615 9.26047e-06 2.3481e-06 7.39728e-06
5 1 2.3813 4.24336 21.9615 -1.99744e-05 3.67354e-05 7.39198e-07
6 1 3.59728 5.00689 21.9615 1.50938e-05 -1.34812e-05 4.99994e-05
7 1 13.7367 6.44763 21.9615 -1.41054e-05 2.08032e-06 2.00288e-05
8 1 4.8631 7.19935 21.9615 1.72027e-05 -1.12887e-05 1.394e-05
9 1 2.3813 -0.0965829 21.9615 4.51695e-05 2.46953e-06 4.35684e-06
10 1 3.63679 0.612635 21.9615 1.20194e-05 -8.91205e-06 6.82305e-06
11 1 3.62325 2.05453 21.9615 8.18048e-06 -3.59542e-05 2.30901e-05
12 1 4.85536 2.76589 21.9615 2.23343e-05 -1.65762e-05 4.51401e-05
13 1 4.86124 4.22012 21.9615 1.31256e-05 1.0606e-05 9.70761e-05
14 1 5.86397 5.15986 21.9615 0.000115463 -6.80889e-05 7.31619e-05
15 1 6.17643 6.49811 21.9615 1.28517e-05 -1.41705e-05 2.85572e-05
16 1 7.4329 7.23032 21.9615 1.91318e-05 -1.41413e-05 -5.93823e-06
17 1 4.89786 -0.115445 21.9615 -2.66587e-05 2.78104e-05 -3.83404e-06
18 1 6.16708 0.555862 21.9615 6.21156e-06 2.19472e-05 -6.87224e-06
19 1 6.1177 2.04386 21.9615 3.79242e-05 3.1284e-05 1.19412e-06
20 1 7.4329 2.44238 21.9615 2.24705e-06 0.000110334 6.8872e-06
21 1 9.00183 5.15986 21.9615 -0.00010172 -6.27478e-05 -9.18828e-05
22 1 8.68937 6.49811 21.9615 -2.2727e-05 -3.88849e-05 -4.96969e-05
23 1 10.0027 7.19935 21.9615 -1.44322e-05 -1.79086e-05 -2.41863e-05
24 1 12.4845 8.61646 21.9615 9.7601e-06 2.02053e-05 1.34587e-06
25 1 8.69872 0.555862 21.9615 3.11426e-06 1.90005e-05 1.55014e-05
26 1 8.7481 2.04386 21.9615 -3.75172e-05 1.68294e-05 1.20868e-05
27 1 10.0104 2.76589 21.9615 -4.77355e-06 -4.6236e-06 -3.62901e-05
28 1 10.0046 4.22012 21.9615 -2.675e-05 2.12871e-05 -0.000107306
29 1 11.2685 5.00689 21.9615 -1.22287e-05 -1.43754e-05 -5.79238e-05
30 1 11.2323 6.44763 21.9615 -1.00755e-06 -1.79153e-05 -3.09219e-05
31 1 12.4845 7.17057 21.9615 -3.8304e-07 -2.53679e-06 -3.7714e-06
