units           real
atom_style      charge
boundary        p p p
processors		  * * 1
read_data		    V1_charge.data
Reading data file ...
  triclinic box = (0 0 0) to (9.8162093 8.5096963 49.912578) with tilt (4.9269689 9.6324442e-05 0.00014682442)
WARNING: Triclinic box skew is large. LAMMPS will run inefficiently. (src/domain.cpp:220)
  1 by 1 by 1 MPI processor grid
  reading atoms ...
  31 atoms
  read_data CPU = 0.010 seconds
mass            1 12.011

# Define potentials
pair_style      reax/c NULL
pair_coeff      * * ffield.reax.cho C
Reading potential file ffield.reax.cho with DATE: 2011-02-18
neigh_modify    every 1 delay 0 check yes
fix             1 all qeq/reax 1 0.0 10.0 1.0e-6 reax/c


# Variable
variable        thermofrq equal 10
variable        Nloop equal 100     # number of loop to run
variable        binding equal pe


# Output
thermo          ${thermofrq}
thermo          10
thermo_style    custom step temp pe lx ly lz pxx pyy pzz fmax fnorm
thermo_modify   line one format float %20.16g
thermo_modify   flush yes norm no lost warn

# Minimize the system in loops
timestep        1.0e-3
variable        nr loop ${Nloop}
variable        nr loop 100
label           loopmin

# Minimize the with cg + box/relax
  fix             frb all box/relax tri 0.0 couple none
  min_style       cg
  min_modify      line quadratic
  minimize        0.0 1.0e-3 10000 10000

CITE-CITE-CITE-CITE-CITE-CITE-CITE-CITE-CITE-CITE-CITE-CITE-CITE

Your simulation uses code contributions which should be cited:

- pair reaxff command: doi:10.1016/j.parco.2011.08.005

@Article{Aktulga12,
 author = {H. M. Aktulga and J. C. Fogarty and S. A. Pandit and A. Y. Grama},
 title = {Parallel Reactive Molecular Dynamics: {N}umerical Methods and Algorithmic Techniques},
 journal = {Parallel Computing},
 year =    2012,
 volume =  38,
 number =  {4--5},
 pages =   {245--259}
}

- fix qeq/reaxff command: doi:10.1016/j.parco.2011.08.005

@Article{Aktulga12,
 author = {H. M. Aktulga and J. C. Fogarty and S. A. Pandit and A. Y. Grama},
 title = {Parallel Reactive Molecular Dynamics: {N}umerical Methods and Algorithmic Techniques},
 journal = {Parallel Computing},
 year =    2012,
 volume =  38,
 pages =   {245--259}
}

CITE-CITE-CITE-CITE-CITE-CITE-CITE-CITE-CITE-CITE-CITE-CITE-CITE

Neighbor list info ...
  update: every = 1 steps, delay = 0 steps, check = yes
  max neighbors/atom: 2000, page size: 100000
  master list distance cutoff = 12
  ghost atom cutoff = 12
  binsize = 6, bins = 3 2 9
  2 neighbor lists, perpetual/occasional/extra = 2 0 0
  (1) pair reax/c, perpetual
      attributes: half, newton off, ghost
      pair build: half/bin/newtoff/ghost
      stencil: full/ghost/bin/3d
      bin: standard
  (2) fix qeq/reax, perpetual, copy from (1)
      attributes: half, newton off
      pair build: copy
      stencil: none
      bin: none
WARNING: Energy due to 6 extra global DOFs will be included in minimizer energies
 (src/min.cpp:225)
Per MPI rank memory allocation (min/avg/max) = 13.28 | 13.28 | 13.28 Mbytes
   Step          Temp          PotEng           Lx             Ly             Lz            Pxx            Pyy            Pzz            Fmax          Fnorm     
         0                     0   -5556.622982074924         9.8162093397         8.5096962804         49.912578381    138879.8999226518    138871.4464932772 -0.0005004168307437772    196.8210942036032    497.4159585835819
        10                     0   -5573.512456493866    9.826025549039702    8.518205476341024    49.91257838081875    138350.3184256771    138342.6454056583 -0.0005064884923541543    198.1676423522343    500.9992645762382
        20                     0   -5590.352407486947    9.835841758379404    8.526714736020176    49.91257838063457    137888.2292351627    137881.9303236799 -0.0005120307481332548    199.7339359647372    505.0750993155429
        30                     0   -5607.153653605781    9.845657967719106    8.535224093260384    49.91257838044771    137538.7710860208    137534.3035749474 -0.0005169155796396236    201.7200543194352    510.0073879636687
        40                     0   -5623.934351256104    9.855474177058808    8.543733571622216    49.91257838025867    137378.0897711344    137375.6983787839 -0.0005209321574596946    204.4656672608182    516.4395229531801
        50                     0   -5640.724568917492     9.86529038639851    8.552243178738205     49.9125783800681    137524.5677672792    137524.1924113003 -0.0005237634939435797    208.5028962662674    525.4461593939529
        60                     0   -5657.571533646553    9.875106562394523    8.560752871828427    49.91257837987703    138134.3836388843     138135.605561219 -0.0005250191745719524    214.5394317344933    538.6303596174026
        70                     0   -5674.541236847254     9.88492264885765    8.569262568108826    49.91257837968681    139331.6328221431    139333.8463305073 -0.0005244781386725582    223.1402220235829     557.718998252915
        80                     0   -5691.701805532197    9.894738673304605    8.577772264389226    49.91257837949875    140950.6355810403      140953.93170309 -0.000522917114174915    233.5269732288403    582.2115252649591
        90                     0   -5709.053251112492    9.904554552701864    8.586281960669625    49.91257837931277    141910.6521782505    141918.2687495818 -0.0005241163997176533    242.4328128911168    602.6646454182026
       100                     0   -5726.361109308652    9.914369854808829    8.594791656950026    49.91257837912418    139413.0776722663     139435.512861121 -0.0005377066011157596    243.0549381322863    594.0646146105565
       110                     0   -5742.957727500033    9.924183460676069    8.603301353230425    49.91257837891856    129661.1669085955    129717.0483915628 -0.0005779082360890817    217.8442517386905    542.2160795186408
       120                     0   -5757.848853400842    9.933993469355521    8.611811049510823    49.91257837866669      111940.01567354    112042.2767986763 -0.0006505064013869777     202.664780626378    514.9288763081532
       130                     0   -5770.303840354206    9.943798273769696    8.620320745791224     49.9125783783244    90737.98625110301    90869.47405715828 -0.000741027162599311    186.3018468271523    566.3886937257205
       140                     0   -5780.214154686939      9.9535989302929    8.628830442071623    49.91257837783682    70588.07122178751    70706.65712446148 -0.0008266870028127538    206.2108698332898    618.6909061981114
       150                     0   -5787.852894312828    9.963399186481567    8.637340138352021    49.91257837713842     53444.9479737201    53526.63243849386 -0.0008899289844773488     224.039978347765    647.6130507789862
       160                     0   -5793.670109155348    9.973201460529468    8.645849834632422    49.91257837615728    40356.36524035523    40409.46704697201 -0.000926534829529206    222.1369962880505    662.5981726877894
       170                     0   -5798.172652344366    9.983006134526596    8.654359530912821    49.91257837482413     30983.1722383931    31011.09028250164 -0.0009544598855746291    209.9300511786749    663.6529346448306
       180                     0   -5801.680092809217    9.992818846651364    8.662867948617317    49.91257837299894    22687.37862342613    22661.64028757439 -0.001003073080488144    185.1234361901952    631.5628500594963
       190                     0   -5804.120324273692    10.00263505599107    8.671345345136457    49.91257837000225    12081.43625406107    11971.12318228962 -0.001086013794170636    141.6790041109164    553.6633506771054
       200                     0   -5805.593905596496    10.01109743162824    8.678437699418938    49.91257835882467    299.9337881469111    139.8744853933946 -0.001175200613798315    128.9519260989563    469.0179071794395
       210                     0   -5806.994389949744     10.0104642805818    8.677446572913073    49.91257833798264   -326.5842618480481   -461.9978026175947 -0.001172561258657997    128.0001962278166    462.8398804386712
       220                     0   -5808.563874696373    10.00912414427334    8.675855632941433    49.91257831375115   -342.8947944527151   -453.6062269900016 -0.001164303700933223    127.7447781512412    460.1886374646404
       230                     0   -5810.380136096333    10.00744695812134    8.673981804889941    49.91257828465658   -349.1486022240205   -437.5074721283881 -0.001155213589223284    127.4151790080146    456.3745062114544
       240                     0   -5812.584746331637    10.00530431399002    8.671702881087041    49.91257824787303   -342.8443430056212   -411.2408286485343 -0.001145464450847904    126.7802118553609    449.7594931542277
       250                     0   -5815.475356820135    10.00243405698781    8.668770127967546    49.91257819682334   -316.3747577011113   -365.7803850449558 -0.001135693522045343    124.9264034972513     435.930280770199
       260                     0   -5819.882151466677    9.998093924952379    8.664510127881814    49.91257810837732   -251.7307056960245   -276.1458384955401 -0.001127050043040031    116.2017672186574    393.5047679509848
       270                     0   -5825.600443273347    9.991297441248232     8.65851045928207    49.91257793735398    1712.128597429263    1729.979463060959 -0.001095470521552177    100.8107429953582    295.6941171198458
       280                     0   -5827.332177865372    9.989222040228329    8.656850828568421    49.91257785375726    1928.039937588293     1934.05132314757 -0.001078397087059515    79.90871963174966    245.7025535043702
       290                     0   -5829.028840557173    9.989305335523515    8.656721281563533     49.9125777080846   -4047.465295953813    -4074.96819319513 -0.001081835551854494     51.9667702836537    146.7226396125563
       300                     0   -5831.047542067303    9.987335522693044    8.653766293899295    49.91257718015753    5596.964248912871    5585.583417015127 -0.0009173468689536378    40.20166256702156    89.95735792743356
       310                     0     -5832.9848700016    9.989359648841214    8.654628643816467    49.91257633367319    5787.233709987734    5774.796481051536 -0.0007245618545631139    34.59751447725214    65.01895473930568
       320                     0   -5834.427042116178    9.993350421116073     8.65790400830978    49.91257569326406    1795.788108703532     1762.56040421329 -0.0006056156456232617    34.08525956035101    78.44090304576289
       330                     0   -5835.805730872999    9.998480888447526    8.661436554770946    49.91257511136733   -863.9792046185452   -852.3072711157772 -0.0005078742437625171    35.52359090363431    73.87795101824369
       340                     0   -5836.781391965329    10.00061487227928    8.663348038289227    49.91257480111603    694.1945008443023     690.659654605694 -0.0004476276713123849    34.43151422483372    67.80368832908805
       348                     0   -5837.323859719388    10.00214651458592    8.664479731470529    49.91257458596129    3076.270653506794    3074.705789067574 -0.0004040476363837735    33.23792294244777    62.72100415609108
Loop time of 0.780288 on 1 procs for 348 steps with 31 atoms

96.9% CPU use with 1 MPI tasks x no OpenMP threads

Minimization stats:
  Stopping criterion = linesearch alpha is zero
  Energy initial, next-to-last, final = 
     -5556.62298207492  -5837.32385969149  -5837.32385971939
  Force two-norm initial, final = 11952.571 276.58332
  Force max component initial, final = 8444.6793 190.50075
  Final line search alpha, max atom move = 1.2515361e-13 2.3841858e-11
  Iterations, force evaluations = 348 414

MPI task timing breakdown:
Section |  min time  |  avg time  |  max time  |%varavg| %total
---------------------------------------------------------------
Pair    | 0.67328    | 0.67328    | 0.67328    |   0.0 | 86.29
Neigh   | 0          | 0          | 0          |   0.0 |  0.00
Comm    | 0.0010192  | 0.0010192  | 0.0010192  |   0.0 |  0.13
Output  | 0.035097   | 0.035097   | 0.035097   |   0.0 |  4.50
Modify  | 0.067045   | 0.067045   | 0.067045   |   0.0 |  8.59
Other   |            | 0.00385    |            |       |  0.49

Nlocal:             31 ave          31 max          31 min
Histogram: 1 0 0 0 0 0 0 0 0 0
Nghost:            410 ave         410 max         410 min
Histogram: 1 0 0 0 0 0 0 0 0 0
Neighs:           4587 ave        4587 max        4587 min
Histogram: 1 0 0 0 0 0 0 0 0 0

Total # of neighbors = 4587
Ave neighs/atom = 147.96774
Neighbor list builds = 0
Dangerous builds = 0

# Minimize the with fire
  unfix           frb
  min_style       fire
  minimize        0.0 1.0e-3 10000 10000
  Parameters for fire:
    dmax  delaystep dtgrow dtshrink alpha0 alphashrink tmax tmin   integrator   halfstepback   abcfire  
     0.1     20      1.1     0.5     0.25     0.99      10  0.02 eulerimplicit      yes          no     
Per MPI rank memory allocation (min/avg/max) = 12.15 | 12.15 | 12.15 Mbytes
   Step          Temp          PotEng           Lx             Ly             Lz            Pxx            Pyy            Pzz            Fmax          Fnorm     
       348                     0   -5837.323859712498    10.00214651458592    8.664479731470529    49.91257458596129    3076.270653250368    3074.705788785579 -0.0004040476363817441    33.23792294260558    62.72100415778615
       350  2.346545838529017e-06   -5837.323860084117    10.00214651458592    8.664479731470529    49.91257458596129     3076.27449536054    3074.709627433665 -0.0004040475917998599    33.23792062787083    62.72099619074213
       360  6.555950656016393e-05   -5837.323868145511    10.00214651458592    8.664479731470529    49.91257458596129    3076.356600462246    3074.791657125112 -0.0004040465729722113    33.23787116162925    62.72082597081257
       370  0.0002169005219382501   -5837.323886713047    10.00214651458592    8.664479731470529    49.91257458596129    3076.545982808853     3074.98086511568 -0.0004040441947853578     33.2377570668383    62.72043336388067
       380  0.0007641827075529642   -5837.323952675285    10.00214651458592    8.664479731470529    49.91257458596129    3077.218701330916    3075.652962292002 -0.0004040356978118785     33.2373517658508    62.71903880291707
       390  0.003859687427357187   -5837.324318060293    10.00214651458592    8.664479731470529    49.91257458596129    3080.945295781594    3079.376095280783 -0.0004039883005590953    33.23510588837915    62.71131415333965
       400   0.01704516295851478   -5837.325829734463    10.00214651458592    8.664479731470529    49.91257458596129    3096.364593145515    3094.780723349883 -0.0004037902121499603    33.22579725421232    62.67935839974361
       410   0.04109581884316397    -5837.14613244505    10.00214651458592    8.664479731470529    49.91257458596129    3129.214445883229    3129.837053759103 -0.000403185835590843    33.26630086590519    62.68428203100208
       420   0.07634934961141018   -5837.149933433052    10.00214651458592    8.664479731470529    49.91257458596129    3167.906181170436    3168.500230527703 -0.0004026777415707639     33.2432142692067    62.60481915923933
       430    0.1232868703392332   -5837.154888594825    10.00214651458592    8.664479731470529    49.91257458596129    3218.323459288752    3218.879714994356 -0.0004020091340136027    33.21303812203487    62.50153529000391
       440    0.1823180434858331   -5837.161009657444    10.00214651458592    8.664479731470529    49.91257458596129    3280.573611148822    3281.082427866359 -0.000401176013152791    33.17563501000524    62.37440929490189
       450    0.2537748168078904   -5837.168304875882    10.00214651458592    8.664479731470529    49.91257458596129    3354.715642724664    3355.166916764141 -0.0004001748234481652     33.1308758685151     62.2235577544561
       460    0.3379161118444568   -5837.176778451731    10.00214651458592    8.664479731470529    49.91257458596129    3440.764319223179    3441.147471482795 -0.0003990024508502804    33.07863880954521    62.04922170975297
       470    0.4349325601342428   -5837.186431286706    10.00214651458592    8.664479731470529    49.91257458596129    3538.692031226996     3538.99600743561 -0.0003976562023687146    33.01880867873038    61.85175675236923
       480    0.5449512141590157   -5837.197261166789    10.00214651458592    8.664479731470529    49.91257458596129    3648.430364010248    3648.643653233946 -0.0003961337844106096    32.95127692892534    61.63162327060118
       490    0.6680401868169055   -5837.209262543882    10.00214651458592    8.664479731470529    49.91257458596129    3769.871698412148    3769.982368088132 -0.0003944332845399459    32.87594178275226      61.389376652399
       500    0.8042131830257651    -5837.22242705447    10.00214651458592    8.664479731470529    49.91257458596129    3902.870945954357    3902.866693276068 -0.000392553156805567    32.79270856951916    61.12565747147081
       510    0.9534338952754664   -5837.236743821563    10.00214651458592    8.664479731470529    49.91257458596129    4047.247422550283    4047.115641004118 -0.0003904922107962337     32.7014902809191    60.84118186441956
       520     1.115620241969003   -5837.252199033103    10.00214651458592    8.664479731470529    49.91257458596129    4202.786850662384    4202.514709514175 -0.0003882496042773209    32.60220831690948    60.53673217459698
       530     1.290648433611379   -5837.268776993322    10.00214651458592    8.664479731470529    49.91257458596129    4369.243558516574    4368.818092680484 -0.0003858248382821056    32.49479330717657    60.21314766583547
       540     1.478356856990119   -5837.286459623627    10.00214651458592    8.664479731470529    49.91257458596129    4546.342779230199    4545.750985499284 -0.0003832177547849275    32.37918609838459    59.87131551917183
       550     1.678549772056684   -5837.305226889834    10.00214651458592    8.664479731470529    49.91257458596129    4733.783106484209     4733.01204423992 -0.0003804285356000856    32.25533875408241    59.51216181853862
       560     1.891000819596939   -5837.325057137408    10.00214651458592    8.664479731470529    49.91257458596129    4931.239058636331    4930.275950985999 -0.0003774577025041084    32.12321560957382    59.13664262776877
       570      2.11545634041437   -5837.345927040301    10.00214651458592    8.664479731470529    49.91257458596129    5138.363717569947    5137.196050826265 -0.0003743061173909591    31.98279429177433    58.74573512601818
       580     2.351638508868904   -5837.367811837831    10.00214651458592    8.664479731470529    49.91257458596129    5354.791433008139    5353.407050101947 -0.0003709749820521462    31.83406671615028    58.34042886118716
       590     2.599248284590988    -5837.39068559982    10.00214651458592    8.664479731470529    49.91257458596129    5580.140552580558    5578.527740698384 -0.0003674658368981007    31.67703997907753    57.92171722081753
       600     2.857968187127863   -5837.414521285296    10.00214651458592    8.664479731470529    49.91257458596129    5814.016142917852     5812.16371228192 -0.0003637805580434964    31.51173717097417    57.49058927590184
       610     3.127464898520256   -5837.439290873517    10.00214651458592    8.664479731470529    49.91257458596129    6056.012672702902    6053.910026235098 -0.0003599213527197079    31.33819806307089    57.04802217088816
       620     3.407391698745101   -5837.464965386822    10.00214651458592    8.664479731470529    49.91257458596129    6305.716628177172    6303.353821710403 -0.000355890751956408     31.1564796584378    56.59497420759846
       630     3.697390739074626   -5837.491515823426    10.00214651458592    8.664479731470529    49.91257458596129     6562.70905529101    6560.076849572223 -0.0003516916008890625    30.96665659045169    56.13237874950107
       640     3.997095158030654   -5837.518911698012    10.00214651458592    8.664479731470529    49.91257458596129    6826.567905678671    6823.657810925421 -0.0003473270471277304    30.76882150383568    55.66113933285478
       650     4.306131044970093   -5837.547122694263    10.00214651458592    8.664479731470529    49.91257458596129    7096.870333414757    7093.674649609958 -0.0003428005257883592    30.56308520172119    55.18212564705047
       660     4.624119256106587   -5837.576117977209    10.00214651458592    8.664479731470529    49.91257458596129    7373.194749639549     7369.70660619358 -0.0003381157431340359    30.34957686383833    54.69617095915456
       670     4.950677088938852   -5837.605866446882    10.00214651458592    8.664479731470529    49.91257458596129    7655.122725572449    7651.336127496024 -0.0003332766576115064    30.12844429407862    54.20407080625192
       680      5.28541982152404   -5837.636336844738    10.00214651458592    8.664479731470529    49.91257458596129    7942.240699057494    7938.150587950489 -0.000328287459568773    29.89985436468998    53.70658315146944
       690     5.627962125954695   -5837.667497807786    10.00214651458592    8.664479731470529    49.91257458596129     8234.14148302885    8229.743832502341 -0.0003231525494848107    29.66399402255796    53.20443031162588
       700     5.977919369433924   -5837.699318012262    10.00214651458592    8.664479731470529    49.91257458596129    8530.425587535123    8525.717565087103 -0.000317876514730567    29.42107248590877    52.69830324343259
       710      6.33490882596526   -5837.731766056799    10.00214651458592    8.664479731470529    49.91257458596129     8830.70235935076    8825.682629211498 -0.0003124641051168058     29.1713262977552    52.18886991026048
       720     6.698550846543888   -5837.764810665814    10.00214651458592    8.664479731470529    49.91257458596129    9134.591030139038    9129.260381095228 -0.0003069202053193143    28.91503176991253    51.67679254079508
       730     7.068470111860075   -5837.798421002549    10.00214651458592    8.664479731470529    49.91257458596129    9441.721862655466    9436.084754309588 -0.0003012497976325263    28.65254150555306    51.16277197674628
       740     7.444297428467129   -5837.832566128971    10.00214651458592    8.664479731470529    49.91257458596129    9751.738525964896    9745.808393453422 -0.0002954578741676061    28.38443665211928    50.64771950724042
       750     7.825676250128719   -5837.867262601584    10.00214651458592    8.664479731470529    49.91257458596129    10083.53135499259    10115.59034950709 -0.0002887401980333669    29.67464598742932    51.88107491231489
       760     8.225156826745319   -5837.903602272148    10.00214651458592    8.664479731470529    49.91257458596129    10398.01359734237    10429.41800855355 -0.0002829203064164165    29.37659801893901    51.34449896835322
       770     8.630133017255725   -5837.940432885219    10.00214651458592    8.664479731470529    49.91257458596129    10714.50031657346     10745.2572433962 -0.0002769820307693258    29.07199151673466    50.80645648282223
       780      9.04020165074299   -5837.977721534983    10.00214651458592    8.664479731470529    49.91257458596129    11032.69721949182    11062.81335592889 -0.0002709322296637869    28.76118237708107    50.26747722958429
       790     9.454970532875684   -5838.015435793773    10.00214651458592    8.664479731470529    49.91257458596129    11352.31649267882    11381.79811475635 -0.000264777494657901    28.44452981845581    49.72809381205723
       800     9.874057686342054   -5838.053543649494    10.00214651458592    8.664479731470529    49.91257458596129    11673.07702409416    11701.92998412087 -0.0002585241975543868    28.12239539711345    49.18884358304435
       810     10.29709092377716   -5838.092013502429    10.00214651458592    8.664479731470529    49.91257458596129    11994.70449066543    12022.93421703028 -0.0002521785229082383    27.79514188393948    48.65027088051629
       820     10.72370763446482   -5838.130814127291    10.00214651458592    8.664479731470529    49.91257458596129    12316.93133099307    12344.54283223409 -0.0002457464897246438    27.46313212120317    48.11292962161168
       830     11.15355470850982   -5838.169914943777    10.00214651458592    8.664479731470529    49.91257458596129    12639.49665399276    12666.49452793335 -0.0002392339661842249    27.12672786647104    47.57738619536652
       840     11.58628854987743   -5838.209285934265    10.00214651458592    8.664479731470529    49.91257458596129    12962.14608282814    12988.53452718509 -0.0002326466790023041    26.78628865401988    47.04422264810334
       850     12.02157514798343   -5838.248897640435    10.00214651458592    8.664479731470529    49.91257458596129    13284.63156000305    13310.41438564744 -0.0002259902193463041    26.44217072944264    46.51404001042128
       860     12.45909018935367   -5838.288721120193    10.00214651458592    8.664479731470529    49.91257458596129    13606.71113887586    13631.89178209461 -0.0002192700464437492     26.0947260477749    45.98746191505024
       870     12.89851919915719   -5838.328728462739    10.00214651458592    8.664479731470529    49.91257458596129    13928.14877790466    13952.73031309214 -0.0002124914892990392    25.74430132684713     45.4651380451234
       880     13.33955770671012   -5838.368892131218    10.00214651458592    8.664479731470529    49.91257458596129    14248.71410751327    14272.69925617483 -0.0002056597477292505    25.39123719219134    44.94774767214837
       890     13.78191143305335   -5838.409185519513    10.00214651458592    8.664479731470529    49.91257458596129    14568.18224525571    14591.57338315864 -0.0001987798925564424    25.03586738163607    44.43600300902379
       900     14.22529649979522   -5838.449582839486    10.00214651458592    8.664479731470529    49.91257458596129    14886.33360877229    14909.13276546397 -0.0001918568652822436    24.67851805016314    43.93065235302846
       910     14.66943966000217   -5838.490059228592    10.00214651458592    8.664479731470529    49.91257458596129    15202.95376168856    15225.16261459115 -0.0001848954777713955    24.31950710661475     43.4324829111495
       920     15.11407855156416   -5838.530590470438    10.00214651458592    8.664479731470529    49.91257458596129    15517.83327973716    15539.45313736844 -0.000177900411741944    23.95914372131179    42.94232333517863
       930     15.55896197456165   -5838.571153582004    10.00214651458592    8.664479731470529    49.91257458596129    15830.76767355743    15851.79944498198 -0.0001708762180777534    23.59772779292868    42.46104572460064
       940     16.00385019357821   -5838.611726253913    10.00214651458592    8.664479731470529    49.91257458596129     16141.5573238547    16162.00146849351 -0.0001638273161725001    23.23554964801171    41.98956736517876
       950     16.44851526726338   -5838.652287597221    10.00214651458592    8.664479731470529    49.91257458596129    16450.00749317213    16469.86394044678 -0.0001567579929974958    22.87288976169921    41.52885194509141
       960     16.89274140881578   -5838.692817328279    10.00214651458592    8.664479731470529    49.91257458596129    16755.92835188663    16775.19637432109 -0.0001496724019777222    22.51001872229264    41.07991057686124
       970     17.33632538552899   -5838.733296451504    10.00214651458592    8.664479731470529    49.91257458596129    17059.13512255816     17077.8131287969 -0.0001425745609668912    22.14719743309142    40.64380297580177
       980     17.77907697446086   -5838.773707176293    10.00214651458592    8.664479731470529    49.91257458596129    17359.44830845122    17377.53349108082 -0.0001354683485702925    21.78467772824188    40.22163952635864
       990      18.2208195121297    -5838.81403277014    10.00214651458592    8.664479731470529    49.91257458596129    17656.69413718773    17674.18182300143 -0.0001283574969925171    21.42270376977477    39.81458657767539
      1000     18.66139063142998   -5838.854257777756    10.00214651458592    8.664479731470529    49.91257458596129     17950.7054859456    17967.58779869853 -0.0001212455746694777    21.06151491651045    39.42388105606054
      1010     19.10064344515647   -5838.894368137511    10.00214651458592    8.664479731470529    49.91257458596129    18241.32423104048    18257.58678477548 -0.0001141359371705606    20.70135179190268    39.05087581901131
      1020     19.53844913332153   -5838.934351278335    10.00214651458592    8.664479731470529    49.91257458596129    18528.41004780714    18544.02055855494 -0.0001070315300316565    20.34247038071812     38.6972263777666
      1030     19.97470839938134   -5838.974197547382    10.00214651458592    8.664479731470529    49.91257458596129     18811.9715004813    18826.73902471195 -9.993179178996864e-05    19.98518081283499     38.3677190609359
      1040     20.43062348457101   -5839.015890465059    10.00214651458592    8.664479731470529    49.91257458596129     19167.9052768574    19105.57851436454 -9.108059181842849e-05    19.62999410463594    39.73548559908654
      1050     20.88722849259992   -5839.057489699561    10.00214651458592    8.664479731470529    49.91257458596129    19442.35229552126    19380.75490974006 -8.411115742229037e-05     19.2791682761456    39.40154128738812
      1060      21.3615540274436   -5839.100771040685    10.00214651458592    8.664479731470529    49.91257458596129    19731.65403312824    19709.81485259303 -7.69073289970204e-05    20.49464074057143    40.72385686635663
      1070     21.83887721420635   -5839.144150735224    10.00214651458592    8.664479731470529    49.91257458596129    19998.02093865279    19976.11713741037 -7.000430981229937e-05    20.11411898438007    40.38676997387058
      1080     22.31421507474422   -5839.187351312226    10.00214651458592    8.664479731470529    49.91257458596129    20260.47738032722    20238.49638912826 -6.311839025194669e-05    19.73508325997635    40.07416352161951
      1090     22.78746436345281   -5839.230362740006    10.00214651458592    8.664479731470529    49.91257458596129     20518.8870508698    20496.81611062777 -5.625256694476876e-05    19.35763697655903    39.78720856530323
      1100     23.25853824749127   -5839.273176390958    10.00214651458592    8.664479731470529    49.91257458596129    20773.12019417693      20750.946385962 -4.940971507999302e-05    18.98186692307155    39.52699144776243
      1110     23.72736608427582   -5839.315784911897    10.00214651458592    8.664479731470529    49.91257458596129    21023.05388419473    21000.76415429143 -4.259259219305482e-05    18.60784265967507    39.29449347373689
      1120      24.1938930867434   -5839.358182359302    10.00214651458592    8.664479731470529    49.91257458596129    21268.57230269798     21246.1534825182 -3.580384202418761e-05    18.23561583338471    39.09056988680734
      1130      24.6580798695446   -5839.400363997049    10.00214651458592    8.664479731470529    49.91257458596129    21509.56700901032    21487.00582869839 -2.904599867619948e-05    17.86521953861403    38.91592873327846
      1140      25.1199018688918   -5839.442326661353    10.00214651458592    8.664479731470529    49.91257458596129    21745.93721751923    21723.22031506626 -2.232149109908915e-05    17.49666762184184    38.77111004558881
      1150     25.57934863112015   -5839.484067986043    10.00214651458592    8.664479731470529    49.91257458596129    21977.59003766735    21954.70396142773 -1.563264782393924e-05    17.12995402180173    38.65646584357414
      1160     26.03642296612379   -5839.525587043348    10.00214651458592    8.664479731470529    49.91257458596129    22204.44074892709    22181.37195512964 -8.981701778868061e-06    16.76505205463683    38.57214157713025
      1170     26.49113996247036   -5839.566883907364    10.00214651458592    8.664479731470529    49.91257458596129    22426.41303424029    22403.14787742603 -2.370795730725564e-06    16.40191376811746    38.51805945445548
      1180     26.94352586371446   -5839.607959846878    10.00214651458592    8.664479731470529    49.91257458596129    22643.43922874273    22619.96394876469 4.198012596853081e-06    16.04046924439009    38.49390419952538
      1190     27.39361680466896   -5839.648816687642    10.00214651458592    8.664479731470529    49.91257458596129    22855.46052482251    22831.76122696826 1.072274470306774e-05    15.68062596243559     38.4991114279786
      1200     27.84145740841236   -5839.689457400599    10.00214651458592    8.664479731470529    49.91257458596129    23062.42720920204    23038.48984006915 1.720149574160455e-05    15.32226814955682    38.53285930375455
      1210     28.28709924452145   -5839.729885414381    10.00214651458592    8.664479731470529    49.91257458596129    23264.29884260797    23240.10916165149 2.363242894010111e-05    14.96525624795207    38.59406330985283
      1220     28.73059914959191    -5839.77010489468    10.00214651458592    8.664479731470529    49.91257458596129    23461.04445195539    23436.58799958793 3.001376977865391e-05    14.60942633297215    38.68137441396144
      1230     29.17201741041118   -5839.810120267452    10.00214651458592    8.664479731470529    49.91257458596129    23652.64268423438    23627.90474711963 3.634380070984938e-05    14.25458967719573    38.79318055008692
      1240      29.6114158100471   -5839.849936354559    10.00214651458592    8.664479731470529    49.91257458596129    23839.08194713493    23814.04752167454 4.262085546397795e-05    13.90053237118697    38.92761124592432
      1250     30.04885553683166   -5839.889557903655    10.00214651458592    8.664479731470529    49.91257458596129    24020.36051297778    23995.01426821049 4.884331404430934e-05    13.54701505439092    39.08254525213115
      1260      30.4843949558771   -5839.928989591586    10.00214651458592    8.664479731470529    49.91257458596129    24196.48659957337    24170.81284101342 5.500959763188671e-05    13.19377277052585    39.25562081510675
      1270     30.91808724243866   -5839.968235808054    10.00214651458592    8.664479731470529    49.91257458596129    24367.47841081308    24341.46104650856 6.111816398464506e-05     12.8405149927138    39.44424833525769
      1280     31.34997787740926   -5840.007300325935    10.00214651458592    8.664479731470529    49.91257458596129    24533.36413065972    24506.98664088602 6.716750261124959e-05    12.48692576593522    39.64562505404574
      1290     31.78010200566482   -5840.046186065382    10.00214651458592    8.664479731470529    49.91257458596129    24694.18187986512    24667.42729291846 7.315613063693554e-05    12.52284453913105    39.85675155851516
      1300     32.20848166028295   -5840.084895135662    10.00214651458592    8.664479731470529    49.91257458596129    24849.97961952569    24822.83049539599 7.908258853280538e-05    12.79934343478149    40.07444960797572
      1310     32.63512285706199   -5840.123427911597    10.00214651458592    8.664479731470529    49.91257458596129    25000.81497790324    24973.25340074413 8.494543608563034e-05    13.06766002919642    40.29538133522282
      1320     33.06001256789524   -5840.161783670485    10.00214651458592    8.664479731470529    49.91257458596129    25146.75505824868    25118.76264167186 9.074324848209217e-05    13.32687133048796    40.51606945907424
      1330     33.48311558449816   -5840.199959357308    10.00214651458592    8.664479731470529    49.91257458596129    25287.87612059577    25259.43402764251 9.647461216431914e-05    13.57602769079346    40.73291855826685
      1340     33.90437128921369    -5840.23794988556    10.00214651458592    8.664479731470529    49.91257458596129    25424.26324181957    25395.35221957249 0.0001021381212457855    13.81415516786739    40.94223721770326
      1350     34.32369035427725   -5840.275747777177    10.00214651458592    8.664479731470529    49.91257458596129    25556.00987358176    25526.61030776324 0.0001077323731853539    14.04025845594556    41.14026126334409
      1360     34.74095139665842   -5840.313342547669    10.00214651458592    8.664479731470529    49.91257458596129    25683.21731848682    25653.30930779128 0.0001132559649782366    14.25332420301846    41.32317797043199
      1370     35.15599762195975   -5840.350720647114    10.00214651458592    8.664479731470529    49.91257458596129    25805.99413133519     25775.5575845373 0.0001187074889049636    14.45232503886458    41.48715159847549
      1380     35.56863349649261   -5840.387865329533    10.00214651458592    8.664479731470529    49.91257458596129    25924.45543815433     25893.4701945165 0.0001240855283250727    14.63622405162453    41.62835025017203
      1390     35.97862149341343   -5840.424755755124    10.00214651458592    8.664479731470529    49.91257458596129    26038.72214461793    26007.16811983431 0.0001293886532427444    14.80397989490584    41.74297418927674
      1400     36.38567896508603   -5840.461367172662    10.00214651458592    8.664479731470529    49.91257458596129    26148.92008942914    26116.77744641015 0.0001346154160059474     14.9545524987805    41.82728602345549
      1410     36.78947519916905   -5840.497670675059    10.00214651458592    8.664479731470529    49.91257458596129    26255.17910437979    26222.42844993024 0.0001397643469422581    15.08690933515208    41.87764272804461
      1420     37.18962872166384   -5840.533632597092    10.00214651458592    8.664479731470529    49.91257458596129    26357.63198794517    26324.25459382692 0.0001448339498291547    15.20003232104809    41.89052968564367
      1430     37.58570491421277   -5840.569214701271    10.00214651458592    8.664479731470529    49.91257458596129      26456.413429144    26422.39147572761 0.0001498226978126599    15.29292517246172    41.86259704854004
      1440      37.9772140162564   -5840.604373621341    10.00214651458592    8.664479731470529    49.91257458596129    26551.65885136232     26516.9756919584 0.0001547290293297943    15.36462130413623    41.79069825851801
      1450        38.36360958472   -5840.639061089902    10.00214651458592    8.664479731470529    49.91257458596129    26643.50323448549    26608.14367636107 0.0001595513445803488    15.41419211304395    41.67193110631768
      1460     38.74428748413614   -5840.673223465586    10.00214651458592    8.664479731470529    49.91257458596129    26732.07988633346    26696.03048175605 0.0001642880023073742    15.44075559296747    41.50368109715713
      1470     39.11858547757912   -5840.706802091892    10.00214651458592    8.664479731470529    49.91257458596129    26817.51922130137    26780.76856627228 0.0001689373173912288    15.44348520374033       41.28366747954
      1480     39.48578348475168   -5840.739732916163    10.00214651458592    8.664479731470529    49.91257458596129    26899.94755060026    26862.48657969864 0.000173497559265233    15.42161864775116    41.00999127734703
      1490     39.84510456805241   -5840.771946891243    10.00214651458592    8.664479731470529    49.91257458596129    26979.48589849633    26941.30817192538 0.0001779669510989244    15.37446690292119    40.68118657425695
      1500     40.19571669901733   -5840.803370049431    10.00214651458592    8.664479731470529    49.91257458596129    27056.24890287578    27017.35087281761 0.0001823436703978927    15.30142271415598    40.29627363385483
      1510     40.53673534206879   -5840.833923625119    10.00214651458592    8.664479731470529    49.91257458596129     27130.3438049936     27090.7250551798 0.0001866258507853203    15.20196882752796    39.85481486132181
      1520     40.86722688180427   -5840.863524470513    10.00214651458592    8.664479731470529    49.91257458596129    27201.86956934795    27161.53301322536 0.0001908115852539651    15.07568562051921       39.35697358628
      1530     41.18621290454479   -5840.892085521124    10.00214651458592    8.664479731470529    49.91257458596129    27270.91616097974    27229.86819254608 0.0001948989309006493    14.92225792563948    38.80357582041776
      1540     41.49267532204917   -5840.919516008853    10.00214651458592    8.664479731470529    49.91257458596129     27337.5640104255    27295.81459557722 0.0001988859153685594    14.74148088942561    38.19617520096867
      1550     41.78556230866307   -5840.945722156491    10.00214651458592    8.664479731470529    49.91257458596129    27401.88370485022    27359.44640508798 0.0002027705450109014    14.53326468160197    37.53712181714511
      1560     42.06379500076185   -5840.970608099207    10.00214651458592    8.664479731470529    49.91257458596129    27463.93592795509     27420.8278493919 0.0002065508147828073    14.29763789012395    36.82963532042671
      1570     42.32627488737887   -5840.994075699473    10.00214651458592    8.664479731470529    49.91257458596129    27523.77162505934    27480.01328506462 0.0002102247193348242    14.03474945873893     36.0778828589772
      1580     42.57189179869396   -5841.016026061466    10.00214651458592    8.664479731470529    49.91257458596129    27581.43251207582    27537.04762388963 0.0002137902662674664    13.74486886009016    35.28706186843352
      1590     42.79953237895401   -5841.036360125449    10.00214651458592    8.664479731470529    49.91257458596129    27636.95181125197     27591.9669828234 0.000217245490073697    13.42838492262895    34.46348850397815
      1600     43.00808892019356   -5841.054979129631    10.00214651458592    8.664479731470529    49.91257458596129    27690.35529913598    27644.79965004278 0.0002205884674216761    13.08580251460084    33.61468937761324
      1610     43.19646840920731   -5841.071785705147    10.00214651458592    8.664479731470529    49.91257458596129    27741.66263393051    27695.56733600346 0.0002238173332562991    12.71773764261102    32.74949489292964
      1620     43.36360163786585   -5841.086684727731    10.00214651458592    8.664479731470529    49.91257458596129    27790.88893620776    27744.28668711913 0.0002269302970953593    12.32491068711761    31.87812850948492
      1630     43.50845221929828   -5841.099583915594    10.00214651458592    8.664479731470529    49.91257458596129    27838.04660030539    27790.97104021174 0.000229925659488236    11.90813787368943    31.01228266376016
      1640     43.63002535168783   -5841.110394782915    10.00214651458592    8.664479731470529    49.91257458596129    27883.14731279842     27835.6323999108 0.0002328018280892325    11.46832113027716    30.16516649404817
      1650     43.72737617592642   -5841.119033244915    10.00214651458592    8.664479731470529    49.91257458596129    27926.20421972988    27878.28358101961 0.0002355573328597148    11.00643630385956    29.35150331138813
      1660     43.79961758295253   -5841.125420346485    10.00214651458592    8.664479731470529    49.91257458596129    27967.23421174302    27918.94048485331 0.0002381908401037538    10.52352003470116    28.58744767608399
      1670     43.84592733942003   -5841.129483287197    10.00214651458592    8.664479731470529    49.91257458596129    28006.26027612945    27957.62446192653 0.0002407011650445489    10.02065543803475    27.89038465297633
      1680     43.86555441910139   -5841.131155153344    10.00214651458592    8.664479731470529    49.91257458596129    28043.31381782991    27994.36466043462 0.0002430872822560142     9.49895681831379    27.27857116951196
      1690  0.0001405248997633611   -5841.131216210662    10.00214651458592    8.664479731470529    49.91257458596129    27985.13711184279    27941.17245399687 -4.750948511906095e-05    9.405250300835842    27.17898274830764
      1700  0.0006799888208283871   -5841.131282937515    10.00214651458592    8.664479731470529    49.91257458596129    27985.98071353917    27942.01510203093 -4.750487098017226e-05    9.403283248022003    27.16955067954034
      1710  0.002055615539128893   -5841.131450043115    10.00214651458592    8.664479731470529    49.91257458596129    27988.09178661542    27944.12378223338 -4.749329324628669e-05    9.398355526221938    27.14596100194378
      1720  0.005588566422806555   -5841.131865967741    10.00214651458592    8.664479731470529    49.91257458596129     27993.3400038792    27949.36600566151 -4.74643707635015e-05    9.386072653635413    27.08739808850977
      1730   0.01100433823015416   -5841.132482146756    10.00214651458592    8.664479731470529    49.91257458596129    28001.09198626399    27957.10899175278 -4.742140296054979e-05    9.367836211489502    27.00107953787348
      1740   0.01840382956732647   -5841.133301110812    10.00214651458592    8.664479731470529    49.91257458596129    28011.34979629866    27967.35461078207 -4.736424221942936e-05    9.343522408420363    26.88713435493062
      1750   0.02786480724836291    -5841.13432400992    10.00214651458592    8.664479731470529    49.91257458596129    28024.08549581062    27980.07469959948 -4.729289070076496e-05    9.313030197408459    26.74598983136834
      1760    0.0394425667005146   -5841.135550598679    10.00214651458592    8.664479731470529    49.91257458596129    28039.24089229898    27995.21081509521 -4.720748976361834e-05     9.27627788926956    26.57830647495834
      1770   0.05317086558649397   -5841.136979465012    10.00214651458592    8.664479731470529    49.91257458596129    28056.72775825048    28012.67446122635 -4.710830472867005e-05    9.233199117451873     26.3849027601942
      1780   0.06906305915977845   -5841.138607804352    10.00214651458592    8.664479731470529    49.91257458596129    28076.42843903663    28032.34770771314 -4.699570595922173e-05    9.183738534429956    26.16667984811878
      1790   0.08711336456179242   -5841.140431838161    10.00214651458592    8.664479731470529    49.91257458596129    28098.19688661581    28054.08423351498 -4.687014727660301e-05    9.127847322956987    25.92455504270687
      1800    0.1072981867566285   -5841.142446585563    10.00214651458592    8.664479731470529    49.91257458596129    28121.86007374946     28077.7107517362 -4.673214244904272e-05    9.065478944250277    25.65941143121196
      1810     0.129577450304608   -5841.144646194852    10.00214651458592    8.664479731470529    49.91257458596129    28147.21980202737    28103.02882526597 -4.65822411038798e-05    8.996585341470581    25.37206791640009
      1820     0.153895896822045   -5841.147023760353    10.00214651458592    8.664479731470529    49.91257458596129      28174.054812642    28129.81698561926 -4.64210053313066e-05    8.921113868291771    25.06327061858289
      1830    0.1801843252504729   -5841.149571641898    10.00214651458592    8.664479731470529    49.91257458596129    28202.12316534527    28157.83311348824 -4.624898816629983e-05    8.839005220621525    24.73370327840701
      1840    0.2083607684299328   -5841.152281357435    10.00214651458592    8.664479731470529    49.91257458596129    28231.16478562991    28186.81698909348 -4.606671494488573e-05    8.750192476243974    24.38401180963954
      1850    0.2383316125131719    -5841.15514366766    10.00214651458592    8.664479731470529    49.91257458596129    28260.90411895739    28216.49294269475 -4.587466866223051e-05    8.654601368855806     24.0148366690221
      1860    0.2699926741899866   -5841.158148755539    10.00214651458592    8.664479731470529    49.91257458596129    28291.05282791991    28246.57254835818 -4.567327940532102e-05    8.552151738190924    23.62684671580897
      1870    0.3032302537113091   -5841.161286064956    10.00214651458592    8.664479731470529    49.91257458596129    28321.31247677346     28276.7573010124 -4.546291837866733e-05    8.442760074621072    23.22076907016439
      1880    0.3379221798181234   -5841.164544916433    10.00214651458592    8.664479731470529    49.91257458596129    28351.37719178832    28306.74126882582 -4.524389590157557e-05    8.326342988186962    22.79741128196239
      1890    0.3739388571119368    -5841.16791358933    10.00214651458592    8.664479731470529    49.91257458596129    28380.93623180468    28336.21365707205 -4.501646348448464e-05    8.202821426391168    22.35767404253519
      1900    0.4111443186209125   -5841.171380583625    10.00214651458592    8.664479731470529    49.91257458596129    28409.67655959962     28364.8613693513 -4.478081824321506e-05    8.072125208134111    21.90255464484795
      1910    0.4493972783234242   -5841.174933738588    10.00214651458592    8.664479731470529    49.91257458596129    28437.28530023637     28392.3714593031 -4.453711018825167e-05    7.934197828508157    21.43314277601878
      1920    0.4885521715103007    -5841.17856094844    10.00214651458592    8.664479731470529    49.91257458596129    28463.45219561429    28418.43357963495 -4.428545027414611e-05    7.789001115723559    20.95061112552073
      1930    0.5284601663066025    -5841.18224987884    10.00214651458592    8.664479731470529    49.91257458596129    28487.87198758891    28442.74236093343 -4.402591928435586e-05    7.636519570868762    20.45620357341758
      1940    0.5689701279030185   -5841.185988259044    10.00214651458592    8.664479731470529    49.91257458596129    28510.24676816205     28464.9997613304 -4.375857670789948e-05    7.476764219228971    19.95122346242205
      1950    0.6099295180862061   -5841.189763858039    10.00214651458592    8.664479731470529    49.91257458596129    28530.28827218551    28484.91735819391 -4.348346894740658e-05    7.309775828169407    19.43702403304074
      1960    0.6511852158805832    -5841.19356450834    10.00214651458592    8.664479731470529    49.91257458596129    28547.72010448748    28502.21858033017 -4.320063672222484e-05    7.135627400888517    18.91500201683241
      1970    0.6925842498785252   -5841.197378301687    10.00214651458592    8.664479731470529    49.91257458596129    28562.27989235492    28516.64086437726 -4.291012158113496e-05    6.954425965659194    18.38659527786099
      1980    0.7339744384183833   -5841.201193592361    10.00214651458592    8.664479731470529    49.91257458596129    28573.72133695452    28527.93771434243 -4.26119713973888e-05     6.76631362152632    17.85328409678236
      1990    0.7752049391051377   -5841.204999090099    10.00214651458592    8.664479731470529    49.91257458596129    28581.81615387239    28535.88064901188 -4.230624504175072e-05    6.571467966147491     17.3165958528594
      2000    0.8161267141404717   -5841.208783784179    10.00214651458592    8.664479731470529    49.91257458596129    28586.35587586262    28540.26101615101 -4.199301655621541e-05    6.370101915671783    16.77811226358561
      2010    0.8565929222322464   -5841.212537188565    10.00214651458592    8.664479731470529    49.91257458596129    28587.15352162293    28540.89167040198 -4.167237895693848e-05    6.162463059678736    16.23947842867538
      2020    0.8964592514576203   -5841.216249340524    10.00214651458592    8.664479731470529    49.91257458596129    28584.04509862553    28537.60848579057 -4.134444818087477e-05    5.948832605684403    15.70241277170474
      2030    0.9355842114168927   -5841.219910632753    10.00214651458592    8.664479731470529    49.91257458596129    28576.89093604232    28530.27169910321 -4.100936757801643e-05    5.729524121383696    15.16871765720562
      2040    0.9738294071353446    -5841.22351216382    10.00214651458592    8.664479731470529    49.91257458596129     28565.5768577106    28518.76709204827 -4.06673130163928e-05    5.504881906416585    14.64028915799332
      2050     1.011059822694522   -5841.227045596277    10.00214651458592    8.664479731470529    49.91257458596129    28550.01516060098    28503.00697739688 -4.031849919029157e-05    5.275279374573313    14.11912630526446
      2060     1.047144150353057   -5841.230503263793    10.00214651458592    8.664479731470529    49.91257458596129    28530.14541663331    28482.93100820087 -3.996318723732963e-05    5.041117191523175    13.60733829559338
      2070     1.081955209945794   -5841.233878144596    10.00214651458592    8.664479731470529    49.91257458596129    28505.93507307236    28458.50678292815 -3.960169385596886e-05    4.802821349490166    13.10714905188165
      2080     1.115370514930465   -5841.237163910189    10.00214651458592    8.664479731470529    49.91257458596129     28477.3798555608    28429.73025361613 -3.923440155615297e-05    4.617172413077704    12.62089788872609
      2090      1.14727305349877    -5841.24035498017    10.00214651458592    8.664479731470529    49.91257458596129    28444.50395090869    28396.62590892164 -3.886177004105508e-05    4.529842067056415    12.15103456379257
      2100     1.177552362794924   -5841.243446448333    10.00214651458592    8.664479731470529    49.91257458596129    28407.35994441665    28359.24671318093 -3.848434775959963e-05    4.439734026628238    11.70010680548762
      2110     1.206105978831164   -5841.246434224198    10.00214651458592    8.664479731470529    49.91257458596129    28366.02849107804    28317.67377559271 -3.810278261740577e-05    4.346940544994037    11.27073808982734
      2120     1.232841336514419   -5841.249314888596    10.00214651458592    8.664479731470529    49.91257458596129    28320.61766786012    28272.01569984333 -3.771783024343976e-05     4.25156569480168     10.8655932537722
      2130     1.257678166605052   -5841.252085904786    10.00214651458592    8.664479731470529    49.91257458596129    28271.26197520737    28222.40757994927 -3.733035780931317e-05    4.153724864297097    10.48732985313558
      2140     1.280551381834946   -5841.254745244823    10.00214651458592    8.664479731470529    49.91257458596129    28218.12090310745    28169.00956038928 -3.694134083869158e-05    4.053544073709908    10.13853388740766
      2150     1.301414356475941   -5841.257291666159    10.00214651458592    8.664479731470529    49.91257458596129    28161.37705072294     28112.0049476326 -3.655185082367055e-05    3.951159101480748     9.82164002479985
      2160      1.32024238629803   -5841.259724789601    10.00214651458592    8.664479731470529    49.91257458596129    28101.23372609829    28051.59780020876 -3.616303129335434e-05    3.846714283668798    9.538838655752258
      2170     1.337035982412876   -5841.262044401446    10.00214651458592    8.664479731470529    49.91257458596129     28037.9119998325    27988.00997196237 -3.577606182069775e-05    3.740361033269683    9.291974903093342
      2180     1.351823533989367   -5841.264251709687    10.00214651458592    8.664479731470529    49.91257458596129    27971.64730628984    27921.47770262725 -3.539211020617469e-05    3.632256014444458    9.082447863769099
      2190     1.364662815562786    -5841.26634742547    10.00214651458592    8.664479731470529    49.91257458596129    27902.68553661422    27852.24769615882 -3.501227654784209e-05    3.522559038715411    8.911120533202089
      2200     1.375640856659386   -5841.268333527232    10.00214651458592    8.664479731470529    49.91257458596129    27831.27894829304    27780.57302077629 -3.463753378627407e-05    3.411430762325735    8.778252234565702
      2210     1.384871862298509   -5841.270211951189    10.00214651458592    8.664479731470529    49.91257458596129    27757.68190118235    27706.70883103749 -3.426867242688739e-05    3.299030290181501    8.683463608077854
      2220     1.392493153629855   -5841.271985464891    10.00214651458592    8.664479731470529    49.91257458596129    27682.14680166394    27630.90830186774 -3.390625618815556e-05    3.185512881022635    8.625740842571306
      2230      1.39865943079479   -5841.273656549965    10.00214651458592    8.664479731470529    49.91257458596129    27604.92036088101     27553.4188765861 -3.355059487265746e-05    3.071027805926236    8.603479962316444
      2240     1.403535952721066   -5841.275228429301    10.00214651458592    8.664479731470529    49.91257458596129    27526.24050845662     27474.4791728577 -3.320173745049359e-05    2.955716688970722    8.614566334002566
      2250     1.407291397223878   -5841.276704226626    10.00214651458592    8.664479731470529    49.91257458596129    27446.33397241787    27394.31655829736 -3.285948549044034e-05    2.839712174878555    8.656479097643807
      2260     1.410091167293749   -5841.278087321141    10.00214651458592    8.664479731470529    49.91257458596129    27365.41468400396    27313.14555101276 -3.252342339885355e-05    2.723137227781927    8.726408192195944
      2270     1.412091759515612   -5841.279381164049    10.00214651458592    8.664479731470529    49.91257458596129    27283.68293972622    27231.16698331662 -3.219296005390545e-05    2.606104826573184    8.821371295529776
      2280     1.413436568315235   -5841.280589248701    10.00214651458592    8.664479731470529    49.91257458596129    27201.32525138065    27148.56785251726 -3.186737584185194e-05    2.710032657757692    8.938320557132281
      2290     1.414253239812873   -5841.281715127862    10.00214651458592    8.664479731470529    49.91257458596129     27118.5147541426    27065.52173234954 -3.154586944852629e-05    2.879802355124182    9.074232382080146
      2300     1.414652472373972   -5841.282762522675    10.00214651458592    8.664479731470529    49.91257458596129    27035.41202517298    26982.18959795592 -3.122760019424149e-05    3.042078925677968    9.226177257355353
      2310     1.414728019624977   -5841.283734911093    10.00214651458592    8.664479731470529    49.91257458596129    26952.16614972946    26898.72089515326 -3.091172353173194e-05    3.196821228737182    9.391369543005265
      2320     1.414557588662903   -5841.284635852488    10.00214651458592    8.664479731470529    49.91257458596129     26868.9159464678    26815.25477234204 -3.059741857140461e-05    3.344001272288859    9.567199294650758
      2330     1.414204325989503   -5841.285468950116    10.00214651458592    8.664479731470529    49.91257458596129    26785.79120734758    26731.92132533719 -3.028390785339339e-05    3.483600896042741    9.751249287360459
      2340     1.413718622243228   -5841.286237733736    10.00214651458592    8.664479731470529    49.91257458596129    26702.91389774423    26648.84280161311 -2.997047009154269e-05      3.6156093082929    9.941300613999339
      2350     1.413140024670568   -5841.286945697384    10.00214651458592    8.664479731470529    49.91257458596129    26620.39926327356    26566.13471171216 -2.965644744494228e-05    3.740021414648613    10.13533010691622
      2360     1.412499106016092   -5841.287596302655    10.00214651458592    8.664479731470529    49.91257458596129     26538.3568104213    26483.90681288863 -2.934124817146487e-05    3.856836806817658    10.33150235970816
      2370     1.411819192021927   -5841.288192964204    10.00214651458592    8.664479731470529    49.91257458596129    26456.89115016682    26402.26395512275 -2.902434617618624e-05    3.966059277332866    10.52815848078284
      2380     1.411117892509364   -5841.288739009177    10.00214651458592    8.664479731470529    49.91257458596129    26376.10269795121    26321.30678341291 -2.870527839988764e-05    4.067696732609033    10.72380323314054
      2390     1.410408412821046   -5841.289237740429    10.00214651458592    8.664479731470529    49.91257458596129    26296.08824316678    26241.13230878728 -2.838364090162889e-05    4.161761403539147    10.91709167403515
      2400     1.409700643775333   -5841.289692393592    10.00214651458592    8.664479731470529    49.91257458596129    26216.94139183382    26161.83435092898 -2.80590840143223e-05    4.248270264175412    11.10681605863162
      2410     1.409002042272436   -5841.290106056764    10.00214651458592    8.664479731470529    49.91257458596129    26138.75289867115    26083.50387258908 -2.773130739672057e-05    4.327245560461373    11.29189348974497
      2420     1.408318322075663   -5841.290481929133    10.00214651458592    8.664479731470529    49.91257458596129    26061.61090674311    26006.22921763752 -2.740005511561404e-05    4.398715388314743    11.47135446981675
      2430     1.407653978116435    -5841.29082281238    10.00214651458592    8.664479731470529    49.91257458596129    25985.60109003505    25930.09625467145 -2.706511071561643e-05    4.462714342662812    11.64433270667929
      2440     1.407012668243971   -5841.291131514555    10.00214651458592    8.664479731470529    49.91257458596129    25910.80674578297    25855.18846873103 -2.672629291019297e-05    4.519284064560335    11.81005583636064
      2450     1.406397475659784   -5841.291411086942    10.00214651458592    8.664479731470529    49.91257458596129    25837.30883108336    25781.58699715681 -2.638345142214549e-05    4.568473780359547    11.96783729210243
      2460     1.405811073383394   -5841.291663803617    10.00214651458592    8.664479731470529    49.91257458596129    25765.18591138599    25709.37057846315 -2.603646349046214e-05    4.610340749901551    12.11706923218972
      2470     1.405255809825195   -5841.291892246944    10.00214651458592    8.664479731470529    49.91257458596129    25694.51413619049    25638.61552638946 -2.568523050687371e-05    4.644950643501598    12.25721620771558
      2480     1.404733732248372   -5841.292098786887    10.00214651458592    8.664479731470529    49.91257458596129    25625.36714207772      25569.395633842 -2.532967527215392e-05    4.672377806039904    12.38780972334688
      2490     1.404246562516532   -5841.292285723495    10.00214651458592    8.664479731470529    49.91257458596129    25557.81595169763    25501.78206874146 -2.496973947855958e-05    4.692705458963564    12.50844355021688
      2500     1.403795637393973   -5841.292454899179    10.00214651458592    8.664479731470529    49.91257458596129    25491.92883909361    25435.84324145129 -2.460538168903612e-05    4.736748093591629     12.6187695059622
      2510     1.403381823728307   -5841.292608230354    10.00214651458592    8.664479731470529    49.91257458596129    25427.77122301048    25371.64469567163 -2.423657535091458e-05    4.802647803736704    12.71849390462396
      2520     1.403005417154152   -5841.292747395554    10.00214651458592    8.664479731470529    49.91257458596129    25365.40551834413    25309.24895988321 -2.386330733705836e-05    4.863091305838424     12.8073744835718
      2530     1.402666031454932   -5841.292873931999    10.00214651458592    8.664479731470529    49.91257458596129    25304.89100807936    25248.71541868524 -2.348557650901338e-05     4.91797611762442    12.88521767069475
      2540     1.402362484406825   -5841.292989087473    10.00214651458592    8.664479731470529    49.91257458596129    25246.28370324368    25190.10017190741 -2.310339261239132e-05    4.967204177468034    12.95187628410899
      2550     1.402092684921217   -5841.293093972867    10.00214651458592    8.664479731470529    49.91257458596129    25189.63622123997    25133.45591296955 -2.271677530678982e-05    5.010682401840157    13.00724755109042
      2560     1.401853525273581    -5841.29318955365    10.00214651458592    8.664479731470529    49.91257458596129    25134.99766001288    25078.83180250724 -2.232575318454318e-05    5.048323206517864    13.05127140435898
      2570     1.401640781470721   -5841.293276569053    10.00214651458592    8.664479731470529    49.91257458596129    25082.41348297748    25026.27335141596 -2.193036331321079e-05    5.080045054462332    13.08392912517617
      2580     1.401449024198167   -5841.293355452305    10.00214651458592    8.664479731470529    49.91257458596129    25031.92541349403    24975.82231784218 -2.153065034365404e-05    5.105772928858045    13.10524213800426
      2590     1.401271542068559   -5841.293426611827    10.00214651458592    8.664479731470529    49.91257458596129     24983.5713430395     24927.5166119977 -2.112666619354882e-05    5.125438792080132    13.11527112391235
      2600     1.401100278599977   -5841.293490103391    10.00214651458592    8.664479731470529    49.91257458596129    24937.38524197513    24881.39020863128 -2.071846946867449e-05    5.138982053100506    13.11411532793212
      2610     1.400925783855176   -5841.293545862267    10.00214651458592    8.664479731470529    49.91257458596129    24893.39709128648    24837.47307711646 -2.030612512665664e-05     5.14634996874473    13.10191210923171
      2620     1.400737181331595   -5841.293593597234    10.00214651458592    8.664479731470529    49.91257458596129    24851.63282002559    24795.79112023243 -1.988970421807108e-05    5.147498010575418    13.07883664549707
      2630     1.400522150484077   -5841.293632863145    10.00214651458592    8.664479731470529    49.91257458596129    24812.11425895802    24756.36612559096 -1.946928344132723e-05    5.142390250711244    13.04510191593722
      2640     1.400266924945236   -5841.293662977154    10.00214651458592    8.664479731470529    49.91257458596129    24774.85910012348    24719.21572670044 -1.904494500940938e-05    5.130999645345327    13.00095884748498
      2650     1.399956306384357   -5841.293683054261    10.00214651458592    8.664479731470529    49.91257458596129     24739.8808758164    24684.35338109772 -1.861677638855781e-05    5.113308333112244     12.9466966315022
      2660     1.399573693708047     -5841.2936921766    10.00214651458592    8.664479731470529    49.91257458596129    24707.18894946797    24651.78836058504 -1.818487007563788e-05    5.089307895689728    12.88264329335132
      2670  3.956329469739112e-05   -5841.293697652854    10.00214651458592    8.664479731470529    49.91257458596129    24703.16043722198    24647.55205231897 -3.683417111303645e-05    5.086684932975089    12.87595001900546
      2680  0.0001697197661039345   -5841.293713688651    10.00214651458592    8.664479731470529    49.91257458596129    24703.78899768119     24648.1835564731 -3.683240272017394e-05     5.08494639495656    12.87134953494383
      2690  0.0005224230769166911   -5841.293756449956    10.00214651458592    8.664479731470529    49.91257458596129      24705.462782104      24649.865180701 -3.682767146056534e-05    5.080316141008922    12.85909785750451
      2700  0.001356569747857493   -5841.293854272999    10.00214651458592    8.664479731470529    49.91257458596129     24709.2970971769    24653.71746135426 -3.681673226630461e-05    5.069705090345167    12.83102536660091
      2710  0.002616012353027836   -5841.293997150794    10.00214651458592    8.664479731470529    49.91257458596129    24714.90573977118    24659.35240367408 -3.68005557756963e-05    5.054172587629466    12.78994383923465
      2720  0.004323006770047424   -5841.294185603149    10.00214651458592    8.664479731470529    49.91257458596129    24722.32066575567    24666.80213985685 -3.67789388427043e-05    5.033616619004746    12.73559617880603
      2730  0.006494583090494168   -5841.294419862405    10.00214651458592    8.664479731470529    49.91257458596129    24731.56475655601    24676.08969509773 -3.675168891393525e-05     5.00795535465177    12.66778313408272
      2740  0.009142618029588158   -5841.294699851628    10.00214651458592    8.664479731470529    49.91257458596129    24742.65203617203    24687.22920360122 -3.67186218737022e-05     4.97712642733002    12.58636146628349
      2750    0.0122739521202341   -5841.295025110245    10.00214651458592    8.664479731470529    49.91257458596129     24755.5879168971    24700.22615450803 -3.66795598906793e-05    4.941086206933974    12.49124211680298
      2760   0.01589054532772245   -5841.295395171963    10.00214651458592    8.664479731470529    49.91257458596129    24770.36947926138    24715.07767137767 -3.663432928307182e-05    4.899809115025747    12.38238836246569
      2770    0.0199896653886927   -5841.295808724417    10.00214651458592    8.664479731470529    49.91257458596129    24786.98574265176    24731.77278107025 -3.658275877028447e-05    4.853286986467978    12.25981407340313
      2780     0.024564103784993   -5841.296264581233    10.00214651458592    8.664479731470529    49.91257458596129    24805.41800219837    24750.29275071956 -3.652467742324111e-05    4.801528336779384    12.12358186492354
      2790    0.0296024147831093   -5841.296761306618    10.00214651458592    8.664479731470529    49.91257458596129    24825.64015800094    24770.61141531465 -3.645991283568029e-05    4.744557750365999    11.97380137423536
      2800   0.03508917339630457   -5841.297297038947    10.00214651458592    8.664479731470529    49.91257458596129    24847.61906417399    24792.69552597628 -3.638828931926149e-05    4.682415162988988    11.81062760303104
      2810   0.04100524852221472   -5841.297869578017    10.00214651458592    8.664479731470529    49.91257458596129    24871.31490916452    24816.50512837475 -3.630962595043534e-05    4.615155277234734    11.63425926323047
      2820     0.047328087844695   -5841.298476674594    10.00214651458592    8.664479731470529    49.91257458596129    24896.68161869561    24841.99396576472 -3.622373465881003e-05    4.542846828443245    11.44493722076006
      2830   0.05403201135722824   -5841.299115865044    10.00214651458592    8.664479731470529    49.91257458596129    24923.66726188833    24869.10988420584 -3.61304181190302e-05    4.465571975750564    11.24294308432692
      2840   0.06108851060810527   -5841.299784503712    10.00214651458592    8.664479731470529    49.91257458596129    24952.21447507418    24897.79525542225 -3.602946773038431e-05    4.383425631313543    11.02859780570801
      2850   0.06846655097552189    -5841.30047965523    10.00214651458592    8.664479731470529    49.91257458596129    24982.26089312962    24927.98740812567 -3.592066140631034e-05    4.296514817108331    10.80226058719561
      2860   0.07613287438862965   -5841.301198302004    10.00214651458592    8.664479731470529    49.91257458596129    25013.73959660554    24959.61907555248 -3.580376123647807e-05    4.204958034976968    10.56432777631817
      2870   0.08405230006272622    -5841.30193734553    10.00214651458592    8.664479731470529    49.91257458596129    25046.57955188901    24992.61883539426 -3.567851115034866e-05    4.108884649439361    10.31523211462629
      2880   0.09218802082897055   -5841.302693555682    10.00214651458592    8.664479731470529    49.91257458596129    25080.70605468507    25026.91155345545 -3.554463436170535e-05    4.008434288212612    10.05544216629299
      2890    0.1005018926556845   -5841.303463565812    10.00214651458592    8.664479731470529    49.91257458596129    25116.04116360871    25062.41881870716 -3.540183076268485e-05    3.903756283945853    9.785462120049713
      2900    0.1089547149021809   -5841.304244011541    10.00214651458592    8.664479731470529    49.91257458596129    25152.50413096529    25099.05937443582 -3.524977413295745e-05    3.795009135993197    9.505831906140623
      2910    0.1175064986537497   -5841.305031454637    10.00214651458592    8.664479731470529    49.91257458596129     25190.0118159553    25136.74953215249 -3.508810930676878e-05    3.682360002392528    9.217127868330541
      2920     0.126116720314808   -5841.305822532951    10.00214651458592    8.664479731470529    49.91257458596129    25228.47907910128    25175.40356646513 -3.491644901146628e-05    3.565984251927006     8.91996395144359
      2930    0.1347445571392998   -5841.306613715962    10.00214651458592    8.664479731470529    49.91257458596129    25267.81915632815    25214.93409209529 -3.47343706819188e-05    3.446065065268499    8.614993610377205
      2940    0.1433491009630363   -5841.307401647923    10.00214651458592    8.664479731470529    49.91257458596129    25307.94401129766    25255.25241435826 -3.454141283603742e-05    3.322793094284478    8.302912683787829
      2950     0.151889545527271   -5841.308183007889    10.00214651458592    8.664479731470529    49.91257458596129    25348.76465546431    25296.26885198799 -3.433707147977152e-05    3.196366129205799    7.984463294125743
      2960    0.1603253417002057   -5841.308954630925    10.00214651458592    8.664479731470529    49.91257458596129    25390.19143714823    25337.89302617947 -3.412079598950234e-05    3.066988967099675    7.660439162947303
      2970    0.1686163135201499   -5841.309713138093    10.00214651458592    8.664479731470529    49.91257458596129    25432.13428316663    25380.03410205967 -3.389198504067642e-05    2.934873248931538    7.331692829069384
      2980    0.1767227258632006   -5841.310455609648    10.00214651458592    8.664479731470529    49.91257458596129    25474.50292966987    25422.60102041698 -3.364998219609191e-05    2.800237422240798    6.999144917762819
      2990    0.1846052919647721   -5841.311179064814    10.00214651458592    8.664479731470529    49.91257458596129    25517.20708010295    25465.50265548664 -3.33940717743553e-05    2.663306851069947    6.663796417060216
      3000    0.1922251055368185   -5841.311880755619    10.00214651458592    8.664479731470529    49.91257458596129    25560.15653158634     25508.6479403011 -3.312347519665644e-05    2.524314044914831    6.326744708864291
      3010    0.1995434778454891    -5841.31255810695    10.00214651458592    8.664479731470529    49.91257458596129    25603.26124803047    25551.94593947594 -3.283734860896549e-05    2.383499032553715    5.989204229698958
      3020    0.2065216549248013    -5841.31320870664    10.00214651458592    8.664479731470529    49.91257458596129    25646.43137815038    25595.30586631567 -3.253478312292652e-05    2.241109931498599    5.652533287018905
      3030    0.2131203847092376   -5841.313830287609    10.00214651458592    8.664479731470529    49.91257458596129       25689.57721521     25638.6370405633 -3.221480975572485e-05    2.097403770168128     5.31826859831028
      3040    0.2192992997136347   -5841.314421107922    10.00214651458592    8.664479731470529    49.91257458596129    25732.60911237594    25681.84880341672 -3.187641258078231e-05    1.952647463195746    4.988169255854644
      3050    0.2250160821203644   -5841.314979133842    10.00214651458592    8.664479731470529    49.91257458596129    25775.43731109537    25724.85034414505 -3.151855567686731e-05    1.807119245986769    4.664272434963837
      3060    0.2302253930595264   -5841.315503249897    10.00214651458592    8.664479731470529    49.91257458596129    25817.97178320784    25767.55054225276 -3.114023242187324e-05    1.661110230199185    4.348961504584888
      3070    0.2348775931590101   -5841.315991899182    10.00214651458592    8.664479731470529    49.91257458596129    25860.12199099929    25809.85772958855 -3.074054972293573e-05    1.514926259323218    4.045046493528681
      3080    0.2389173877643388   -5841.316444514401    10.00214651458592    8.664479731470529    49.91257458596129    25901.79676864668    25851.67957675474 -3.031886452603207e-05    1.368889965590142    3.755851276677979
      3090    0.2422827448794646   -5841.316860195288    10.00214651458592    8.664479731470529    49.91257458596129    25942.90427028651    25892.92305178069 -2.987499378110686e-05    1.223342633812209    3.485292806580876
      3100    0.2449048116443697   -5841.317238878386    10.00214651458592    8.664479731470529    49.91257458596129    25983.35231571021    25933.49478598342 -2.940951518210385e-05    1.078645237096964     3.23792023650534
      3110    0.2467101016271013   -5841.317580708473    10.00214651458592    8.664479731470529    49.91257458596129    26023.04925030122    25973.30196554548 -2.892415704551507e-05    1.005990920706135    3.018856958575255
      3120    0.2476267479113723   -5841.317885907964    10.00214651458592    8.664479731470529    49.91257458596129    26061.90573063517    26012.25416445139 -2.84222224639074e-05   0.9893473987280006    2.833561430293718
      3130    0.2475964886741357   -5841.318155220637    10.00214651458592    8.664479731470529    49.91257458596129    26099.83774245223    26050.26642508402 -2.790890127656621e-05   0.9731013488993838    2.687321221555091
      3140    0.2465922005839914   -5841.318389675846    10.00214651458592    8.664479731470529    49.91257458596129    26136.77086534333    26087.26359213641 -2.739122592074824e-05   0.9572954498294759    2.584462710063028
      3150    0.2446366703584467   -5841.318590798379    10.00214651458592    8.664479731470529    49.91257458596129    26172.64533007144    26123.18543194543 -2.687743224199207e-05   0.9419656584628131    2.527426745840007
      3160    0.2418139471769961   -5841.318760040253    10.00214651458592    8.664479731470529    49.91257458596129    26207.42063611941    26157.99128379747 -2.637571884559632e-05   0.9271386096116356    2.516055131344514
      3170    0.2382649763175511   -5841.318899276389    10.00214651458592    8.664479731470529    49.91257458596129    26241.07823015301    26191.66273158791 -2.589279502727691e-05   0.9128299852784187    2.547459286527318
      3180    0.2341668176801203   -5841.319010352952    10.00214651458592    8.664479731470529    49.91257458596129     26273.6211610388    26224.20320944573 -2.543283331559679e-05   0.8990444138424105    2.616578955202186
      3190    0.2297041688570549   -5841.319095324566    10.00214651458592    8.664479731470529    49.91257458596129    26305.07088075065    26255.63472995156 -2.499722239265913e-05   0.8857768831310895    2.717166263335126
      3200    0.2250447227458107   -5841.319156103482    10.00214651458592    8.664479731470529    49.91257458596129    26335.46232082731     26285.9928819053 -2.45850410528846e-05   0.8730151269278743    2.842771590071907
      3210    0.2203249786779817   -5841.319194570022    10.00214651458592    8.664479731470529    49.91257458596129    26364.83868289136    26315.32155386933 -2.419386889727508e-05    0.860742198125461     2.98744010748394
      3220    0.2156464757191627   -5841.319212633708    10.00214651458592    8.664479731470529    49.91257458596129     26393.2469515234     26343.6683979354 -2.382057040216634e-05   0.9206844698078891    3.146057746281643
      3230  8.103084529950858e-07   -5841.319214685828    10.00214651458592    8.664479731470529    49.91257458596129    26406.04851702153    26356.54647006951 -3.08799758492818e-05   0.9504724166306854    3.224957086010493
      3240  6.697034493954005e-06   -5841.319215424868    10.00214651458592    8.664479731470529    49.91257458596129    26405.99436139121    26356.49101837156 -3.08794475070559e-05   0.9502693059248024    3.224448562266103
      3250  1.994720138472402e-05   -5841.319217044276    10.00214651458592    8.664479731470529    49.91257458596129    26405.87528578779    26356.36909214517 -3.087827273710503e-05   0.9498226245946464    3.223330342945792
      3260  6.108634267322309e-05   -5841.319221852797    10.00214651458592    8.664479731470529    49.91257458596129    26405.51490101514    26356.00007257193 -3.087466946776812e-05   0.9484700933138568    3.219945524633164
      3270  0.000129363448302941    -5841.31922980095    10.00214651458592    8.664479731470529    49.91257458596129    26404.93809927102    26355.40942467183 -3.086878212423813e-05   0.9463030612352985     3.21452566207367
      3280  0.0002254155463928313   -5841.319240483347    10.00214651458592    8.664479731470529    49.91257458596129    26404.15054001403     26354.6029071082 -3.086058262894201e-05   0.9433395071015929    3.207120308005389
      3290  0.0003506156240392724    -5841.31925414334    10.00214651458592    8.664479731470529    49.91257458596129    26403.14982864962    26353.57801583095 -3.084995512014451e-05   0.9395658416464179    3.197701731100265
      3300  0.000506070103615077    -5841.31927070761    10.00214651458592    8.664479731470529    49.91257458596129    26401.93483613923    26352.33352730132 -3.083678583639396e-05   0.9349718518342381    3.186252630565431
      3310  0.0006926282916829469   -5841.319290193226    10.00214651458592    8.664479731470529    49.91257458596129    26400.50568799355    26350.86948651362 -3.082096198140786e-05   0.9295506499393276    3.172765992260425
[...]
Section |  min time  |  avg time  |  max time  |%varavg| %total
---------------------------------------------------------------
Pair    | 0.018886   | 0.018886   | 0.018886   |   0.0 | 90.55
Neigh   | 0          | 0          | 0          |   0.0 |  0.00
Comm    | 2.669e-05  | 2.669e-05  | 2.669e-05  |   0.0 |  0.13
Output  | 0          | 0          | 0          |   0.0 |  0.00
Modify  | 0.0012727  | 0.0012727  | 0.0012727  |   0.0 |  6.10
Other   |            | 0.0006717  |            |       |  3.22

Nlocal:             31 ave          31 max          31 min
Histogram: 1 0 0 0 0 0 0 0 0 0
Nghost:            410 ave         410 max         410 min
Histogram: 1 0 0 0 0 0 0 0 0 0
Neighs:           4560 ave        4560 max        4560 min
Histogram: 1 0 0 0 0 0 0 0 0 0

Total # of neighbors = 4560
Ave neighs/atom = 147.09677
Neighbor list builds = 0
Dangerous builds = 0

# Minimize the with fire
  unfix           frb
  min_style       fire
  minimize        0.0 1.0e-3 10000 10000
  Parameters for fire:
    dmax  delaystep dtgrow dtshrink alpha0 alphashrink tmax tmin   integrator   halfstepback   abcfire  
     0.1     20      1.1     0.5     0.25     0.99      10  0.02 eulerimplicit      yes          no     
Per MPI rank memory allocation (min/avg/max) = 12.15 | 12.15 | 12.15 Mbytes
   Step          Temp          PotEng           Lx             Ly             Lz            Pxx            Pyy            Pzz            Fmax          Fnorm     
     23824                     0   -5859.385706695441    10.10319505175285    8.749623561689594    49.91257339767504 -0.007062544697222439 -0.004298239838308095 -6.032592602216674e-08 0.0001099921154557038 0.000332415174106717
     23825  2.152246489538203e-17   -5859.385706626038    10.10319505175285    8.749623561689594    49.91257339767504 -0.007064545286811735 -0.004300240359762648 -6.032592592374098e-08 0.0001099918303433256 0.0003324140197659573
Loop time of 0.00539995 on 1 procs for 1 steps with 31 atoms

92.8% CPU use with 1 MPI tasks x no OpenMP threads

Minimization stats:
  Stopping criterion = force tolerance
  Energy initial, next-to-last, final = 
     -5859.38570669544  -5859.38570669544  -5859.38570662604
  Force two-norm initial, final = 0.00033241517 0.00033241402
  Force max component initial, final = 0.00010999212 0.00010999183
  Final line search alpha, max atom move = 0 0
  Iterations, force evaluations = 1 2

MPI task timing breakdown:
Section |  min time  |  avg time  |  max time  |%varavg| %total
---------------------------------------------------------------
Pair    | 0.0046589  | 0.0046589  | 0.0046589  |   0.0 | 86.28
Neigh   | 0          | 0          | 0          |   0.0 |  0.00
Comm    | 8.403e-06  | 8.403e-06  | 8.403e-06  |   0.0 |  0.16
Output  | 0          | 0          | 0          |   0.0 |  0.00
Modify  | 0.00036363 | 0.00036363 | 0.00036363 |   0.0 |  6.73
Other   |            | 0.000369   |            |       |  6.83

Nlocal:             31 ave          31 max          31 min
Histogram: 1 0 0 0 0 0 0 0 0 0
Nghost:            410 ave         410 max         410 min
Histogram: 1 0 0 0 0 0 0 0 0 0
Neighs:           4560 ave        4560 max        4560 min
Histogram: 1 0 0 0 0 0 0 0 0 0

Total # of neighbors = 4560
Ave neighs/atom = 147.09677
Neighbor list builds = 0
Dangerous builds = 0

next nr
jump ${simname}.in loopmin
jump ReaxFF.in loopmin

# Minimize the with cg + box/relax
  fix             frb all box/relax tri 0.0 couple none
  min_style       cg
  min_modify      line quadratic
  minimize        0.0 1.0e-3 10000 10000
WARNING: Energy due to 6 extra global DOFs will be included in minimizer energies
 (src/min.cpp:225)
Per MPI rank memory allocation (min/avg/max) = 13.28 | 13.28 | 13.28 Mbytes
   Step          Temp          PotEng           Lx             Ly             Lz            Pxx            Pyy            Pzz            Fmax          Fnorm     
     23825  2.152246489538203e-17   -5859.385706614724    10.10319505175285    8.749623561689594    49.91257339767504 -0.007065049775794826 -0.004300696908571323 -6.032592637349964e-08 0.0001099925493139864 0.0003324124789409269
     23826  2.152246489538203e-17   -5859.385706689621    10.10319504922127    8.749623560355012    49.91257339767493 0.001470339611054807 0.004168834330303842 -6.03250245842543e-08 0.0001154617250227474 0.0003443992364080931
Loop time of 0.00728783 on 1 procs for 1 steps with 31 atoms

12.8% CPU use with 1 MPI tasks x no OpenMP threads

Minimization stats:
  Stopping criterion = force tolerance
  Energy initial, next-to-last, final = 
     -5859.38570661472  -5859.38570661472  -5859.38570668962
  Force two-norm initial, final = 0.00063646928 0.00045804217
  Force max component initial, final = 0.00045462068 0.00026825547
  Final line search alpha, max atom move = 0.2199636 5.900644e-05
  Iterations, force evaluations = 1 2

MPI task timing breakdown:
Section |  min time  |  avg time  |  max time  |%varavg| %total
---------------------------------------------------------------
Pair    | 0.0062259  | 0.0062259  | 0.0062259  |   0.0 | 85.43
Neigh   | 0          | 0          | 0          |   0.0 |  0.00
Comm    | 1.2327e-05 | 1.2327e-05 | 1.2327e-05 |   0.0 |  0.17
Output  | 0          | 0          | 0          |   0.0 |  0.00
Modify  | 0.00049908 | 0.00049908 | 0.00049908 |   0.0 |  6.85
Other   |            | 0.0005506  |            |       |  7.55

Nlocal:             31 ave          31 max          31 min
Histogram: 1 0 0 0 0 0 0 0 0 0
Nghost:            410 ave         410 max         410 min
Histogram: 1 0 0 0 0 0 0 0 0 0
Neighs:           4560 ave        4560 max        4560 min
Histogram: 1 0 0 0 0 0 0 0 0 0

Total # of neighbors = 4560
Ave neighs/atom = 147.09677
Neighbor list builds = 0
Dangerous builds = 0

# Minimize the with fire
  unfix           frb
  min_style       fire
  minimize        0.0 1.0e-3 10000 10000
  Parameters for fire:
    dmax  delaystep dtgrow dtshrink alpha0 alphashrink tmax tmin   integrator   halfstepback   abcfire  
     0.1     20      1.1     0.5     0.25     0.99      10  0.02 eulerimplicit      yes          no     
Per MPI rank memory allocation (min/avg/max) = 12.15 | 12.15 | 12.15 Mbytes
   Step          Temp          PotEng           Lx             Ly             Lz            Pxx            Pyy            Pzz            Fmax          Fnorm     
     23826                     0   -5859.385706658148    10.10319504922127    8.749623560355012    49.91257339767493 0.001469506379458214 0.004168242970985442 -6.032502489858364e-08 0.0001154631330395617 0.0003443981838143941
     23827  2.31017435093137e-17   -5859.385706690217    10.10319504922127    8.749623560355012    49.91257339767493 0.001470266124049991 0.004168755528413733 -6.032502470818458e-08 0.000115463326133991 0.0003443965151327465
Loop time of 0.00697019 on 1 procs for 1 steps with 31 atoms

96.6% CPU use with 1 MPI tasks x no OpenMP threads

Minimization stats:
  Stopping criterion = force tolerance
  Energy initial, next-to-last, final = 
     -5859.38570665815  -5859.38570665815  -5859.38570669022
  Force two-norm initial, final = 0.00034439818 0.00034439652
  Force max component initial, final = 0.00011546313 0.00011546333
  Final line search alpha, max atom move = 0 0
  Iterations, force evaluations = 1 2

MPI task timing breakdown:
Section |  min time  |  avg time  |  max time  |%varavg| %total
---------------------------------------------------------------
Pair    | 0.0058873  | 0.0058873  | 0.0058873  |   0.0 | 84.46
Neigh   | 0          | 0          | 0          |   0.0 |  0.00
Comm    | 9.678e-06  | 9.678e-06  | 9.678e-06  |   0.0 |  0.14
Output  | 0          | 0          | 0          |   0.0 |  0.00
Modify  | 0.0003762  | 0.0003762  | 0.0003762  |   0.0 |  5.40
Other   |            | 0.000697   |            |       | 10.00

Nlocal:             31 ave          31 max          31 min
Histogram: 1 0 0 0 0 0 0 0 0 0
Nghost:            410 ave         410 max         410 min
Histogram: 1 0 0 0 0 0 0 0 0 0
Neighs:           4560 ave        4560 max        4560 min
Histogram: 1 0 0 0 0 0 0 0 0 0

Total # of neighbors = 4560
Ave neighs/atom = 147.09677
Neighbor list builds = 0
Dangerous builds = 0

next nr
jump ${simname}.in loopmin
jump ReaxFF.in loopmin

# Minimize the with cg + box/relax
  fix             frb all box/relax tri 0.0 couple none
  min_style       cg
  min_modify      line quadratic
  minimize        0.0 1.0e-3 10000 10000
WARNING: Energy due to 6 extra global DOFs will be included in minimizer energies
 (src/min.cpp:225)
Per MPI rank memory allocation (min/avg/max) = 13.28 | 13.28 | 13.28 Mbytes
   Step          Temp          PotEng           Lx             Ly             Lz            Pxx            Pyy            Pzz            Fmax          Fnorm     
     23827  2.31017435093137e-17   -5859.385706675804    10.10319504922127    8.749623560355012    49.91257339767493 0.001469996851376299 0.004168491643155179 -6.032502456384215e-08 0.0001154619547971691 0.0003443983862118571
     23828  2.31017435093137e-17   -5859.385706679972    10.10319504922127    8.749623560355012    49.91257339767493 0.001470136959420687 0.004168796549764316 -6.032502465048172e-08 0.0001154628373178923 0.000344397815664963
Loop time of 0.0110366 on 1 procs for 1 steps with 31 atoms

97.8% CPU use with 1 MPI tasks x no OpenMP threads

Minimization stats:
  Stopping criterion = linesearch alpha is zero
  Energy initial, next-to-last, final = 
      -5859.3857066758   -5859.3857066758  -5859.38570667997
  Force two-norm initial, final = 0.00045802349 0.00045803722
  Force max component initial, final = 0.00026823342 0.00026825304
  Final line search alpha, max atom move = 0.046601202 1.2500914e-05
  Iterations, force evaluations = 1 5

MPI task timing breakdown:
Section |  min time  |  avg time  |  max time  |%varavg| %total
---------------------------------------------------------------
Pair    | 0.0099145  | 0.0099145  | 0.0099145  |   0.0 | 89.83
Neigh   | 0          | 0          | 0          |   0.0 |  0.00
Comm    | 1.4301e-05 | 1.4301e-05 | 1.4301e-05 |   0.0 |  0.13
Output  | 0          | 0          | 0          |   0.0 |  0.00
Modify  | 0.00071213 | 0.00071213 | 0.00071213 |   0.0 |  6.45
Other   |            | 0.0003957  |            |       |  3.59

Nlocal:             31 ave          31 max          31 min
Histogram: 1 0 0 0 0 0 0 0 0 0
Nghost:            410 ave         410 max         410 min
Histogram: 1 0 0 0 0 0 0 0 0 0
Neighs:           4560 ave        4560 max        4560 min
Histogram: 1 0 0 0 0 0 0 0 0 0

Total # of neighbors = 4560
Ave neighs/atom = 147.09677
Neighbor list builds = 0
Dangerous builds = 0

# Minimize the with fire
  unfix           frb
  min_style       fire
  minimize        0.0 1.0e-3 10000 10000
  Parameters for fire:
    dmax  delaystep dtgrow dtshrink alpha0 alphashrink tmax tmin   integrator   halfstepback   abcfire  
     0.1     20      1.1     0.5     0.25     0.99      10  0.02 eulerimplicit      yes          no     
Per MPI rank memory allocation (min/avg/max) = 12.15 | 12.15 | 12.15 Mbytes
   Step          Temp          PotEng           Lx             Ly             Lz            Pxx            Pyy            Pzz            Fmax          Fnorm     
     23828                     0   -5859.385706695124    10.10319504922127    8.749623560355012    49.91257339767493 0.001470431122106899 0.004169025492206203 -6.032502469234952e-08 0.0001154635756748235 0.0003443988149602897
     23829  2.310172683614447e-17   -5859.385706670177    10.10319504922127    8.749623560355012    49.91257339767493 0.001469655983835853 0.004168233815751747 -6.032502486889635e-08 0.0001154629494743986 0.0003443976680922685
Loop time of 0.00584188 on 1 procs for 1 steps with 31 atoms

95.3% CPU use with 1 MPI tasks x no OpenMP threads

Minimization stats:
  Stopping criterion = force tolerance
  Energy initial, next-to-last, final = 
     -5859.38570669512  -5859.38570669512  -5859.38570667018
  Force two-norm initial, final = 0.00034439881 0.00034439767
  Force max component initial, final = 0.00011546358 0.00011546295
  Final line search alpha, max atom move = 0 0
  Iterations, force evaluations = 1 2

MPI task timing breakdown:
Section |  min time  |  avg time  |  max time  |%varavg| %total
---------------------------------------------------------------
Pair    | 0.0050067  | 0.0050067  | 0.0050067  |   0.0 | 85.70
Neigh   | 0          | 0          | 0          |   0.0 |  0.00
Comm    | 8.524e-06  | 8.524e-06  | 8.524e-06  |   0.0 |  0.15
Output  | 0          | 0          | 0          |   0.0 |  0.00
Modify  | 0.00042212 | 0.00042212 | 0.00042212 |   0.0 |  7.23
Other   |            | 0.0004045  |            |       |  6.92

Nlocal:             31 ave          31 max          31 min
Histogram: 1 0 0 0 0 0 0 0 0 0
Nghost:            410 ave         410 max         410 min
Histogram: 1 0 0 0 0 0 0 0 0 0
Neighs:           4560 ave        4560 max        4560 min
Histogram: 1 0 0 0 0 0 0 0 0 0

Total # of neighbors = 4560
Ave neighs/atom = 147.09677
Neighbor list builds = 0
Dangerous builds = 0

next nr
jump ${simname}.in loopmin
jump ReaxFF.in loopmin

# Minimize the with cg + box/relax
  fix             frb all box/relax tri 0.0 couple none
  min_style       cg
  min_modify      line quadratic
  minimize        0.0 1.0e-3 10000 10000
Per MPI rank memory allocation (min/avg/max) = 13.28 | 13.28 | 13.28 Mbytes
   Step          Temp          PotEng           Lx             Ly             Lz            Pxx            Pyy            Pzz            Fmax          Fnorm     
WARNING: Too many warnings: 101 vs 100. All future warnings will be suppressed (src/thermo.cpp:472)
     23829  2.310172683614447e-17   -5859.385706691276    10.10319504922127    8.749623560355012    49.91257339767493 0.001470359018042232 0.004168981670340889 -6.032502438651608e-08 0.0001154620959225028 0.0003443980493088299
     23830  2.310172683614447e-17   -5859.385706609459    10.10319504922127    8.749623560355012    49.91257339767493 0.001467899061234321 0.004166425002586272 -6.032502464003972e-08 0.0001154629820936393 0.0003443943902314278
Loop time of 0.0144546 on 1 procs for 1 steps with 31 atoms

97.2% CPU use with 1 MPI tasks x no OpenMP threads

Minimization stats:
  Stopping criterion = linesearch alpha is zero
  Energy initial, next-to-last, final = 
     -5859.38570669128  -5859.38570669128  -5859.38570660946
  Force two-norm initial, final = 0.00045804817 0.00045791532
  Force max component initial, final = 0.00026826496 0.00026810044
  Final line search alpha, max atom move = 0.046595725 1.2492334e-05
  Iterations, force evaluations = 1 5

MPI task timing breakdown:
Section |  min time  |  avg time  |  max time  |%varavg| %total
---------------------------------------------------------------
Pair    | 0.012968   | 0.012968   | 0.012968   |   0.0 | 89.71
Neigh   | 0          | 0          | 0          |   0.0 |  0.00
Comm    | 2.0025e-05 | 2.0025e-05 | 2.0025e-05 |   0.0 |  0.14
Output  | 0          | 0          | 0          |   0.0 |  0.00
Modify  | 0.00098523 | 0.00098523 | 0.00098523 |   0.0 |  6.82
Other   |            | 0.0004817  |            |       |  3.33

Nlocal:             31 ave          31 max          31 min
Histogram: 1 0 0 0 0 0 0 0 0 0
Nghost:            410 ave         410 max         410 min
Histogram: 1 0 0 0 0 0 0 0 0 0
Neighs:           4560 ave        4560 max        4560 min
Histogram: 1 0 0 0 0 0 0 0 0 0

Total # of neighbors = 4560
Ave neighs/atom = 147.09677
Neighbor list builds = 0
Dangerous builds = 0

# Minimize the with fire
  unfix           frb
  min_style       fire
  minimize        0.0 1.0e-3 10000 10000
  Parameters for fire:
    dmax  delaystep dtgrow dtshrink alpha0 alphashrink tmax tmin   integrator   halfstepback   abcfire  
     0.1     20      1.1     0.5     0.25     0.99      10  0.02 eulerimplicit      yes          no     
Per MPI rank memory allocation (min/avg/max) = 12.15 | 12.15 | 12.15 Mbytes
   Step          Temp          PotEng           Lx             Ly             Lz            Pxx            Pyy            Pzz            Fmax          Fnorm     
     23830                     0   -5859.385706642053    10.10319504922127    8.749623560355012    49.91257339767493 0.001468934983343245 0.004167392652373608 -6.032502478108777e-08 0.0001154593207903787 0.0003443948770542262
     23831  2.310182198393264e-17   -5859.385706692874    10.10319504922127    8.749623560355012    49.91257339767493 0.001470372228368062 0.004168911318088777 -6.032502437684176e-08 0.0001154636225439987 0.0003443980733917404
Loop time of 0.00617604 on 1 procs for 1 steps with 31 atoms

96.7% CPU use with 1 MPI tasks x no OpenMP threads

Minimization stats:
  Stopping criterion = force tolerance
  Energy initial, next-to-last, final = 
     -5859.38570664205  -5859.38570664205  -5859.38570669287
  Force two-norm initial, final = 0.00034439488 0.00034439807
  Force max component initial, final = 0.00011545932 0.00011546362
  Final line search alpha, max atom move = 0 0
  Iterations, force evaluations = 1 2

MPI task timing breakdown:
Section |  min time  |  avg time  |  max time  |%varavg| %total
---------------------------------------------------------------
Pair    | 0.0054132  | 0.0054132  | 0.0054132  |   0.0 | 87.65
Neigh   | 0          | 0          | 0          |   0.0 |  0.00
Comm    | 8.634e-06  | 8.634e-06  | 8.634e-06  |   0.0 |  0.14
Output  | 0          | 0          | 0          |   0.0 |  0.00
Modify  | 0.00040041 | 0.00040041 | 0.00040041 |   0.0 |  6.48
Other   |            | 0.0003538  |            |       |  5.73

Nlocal:             31 ave          31 max          31 min
Histogram: 1 0 0 0 0 0 0 0 0 0
Nghost:            410 ave         410 max         410 min
Histogram: 1 0 0 0 0 0 0 0 0 0
Neighs:           4560 ave        4560 max        4560 min
Histogram: 1 0 0 0 0 0 0 0 0 0

Total # of neighbors = 4560
Ave neighs/atom = 147.09677
Neighbor list builds = 0
Dangerous builds = 0

next nr
jump ${simname}.in loopmin
jump ReaxFF.in loopmin

variable        energy equal pe
fix             output all ave/time 1 1 1 v_energy file ${simname}_energy.data
fix             output all ave/time 1 1 1 v_energy file ReaxFF_energy.data
dump            dump1 all custom 1 ${simname}.lammpstrj id type x y z fx fy fz
dump            dump1 all custom 1 ReaxFF.lammpstrj id type x y z fx fy fz
dump_modify     dump1 sort id

fix             nve all nve
run             0
Per MPI rank memory allocation (min/avg/max) = 12.15 | 12.15 | 12.15 Mbytes
   Step          Temp          PotEng           Lx             Ly             Lz            Pxx            Pyy            Pzz            Fmax          Fnorm     
     23831  2.310182198393264e-17   -5859.385706692899    10.10319504922127    8.749623560355012    49.91257339767493 0.001470396526691223 0.004168959248292137 -6.03250247046162e-08 0.0001154632548221457 0.0003443983538775836
Loop time of 1.216e-06 on 1 procs for 0 steps with 31 atoms

0.0% CPU use with 1 MPI tasks x no OpenMP threads

MPI task timing breakdown:
Section |  min time  |  avg time  |  max time  |%varavg| %total
---------------------------------------------------------------
Pair    | 0          | 0          | 0          |   0.0 |  0.00
Neigh   | 0          | 0          | 0          |   0.0 |  0.00
Comm    | 0          | 0          | 0          |   0.0 |  0.00
Output  | 0          | 0          | 0          |   0.0 |  0.00
Modify  | 0          | 0          | 0          |   0.0 |  0.00
Other   |            | 1.216e-06  |            |       |100.00

Nlocal:             31 ave          31 max          31 min
Histogram: 1 0 0 0 0 0 0 0 0 0
Nghost:            410 ave         410 max         410 min
Histogram: 1 0 0 0 0 0 0 0 0 0
Neighs:           4560 ave        4560 max        4560 min
Histogram: 1 0 0 0 0 0 0 0 0 0

Total # of neighbors = 4560
Ave neighs/atom = 147.09677
Neighbor list builds = 0
Dangerous builds = 0
Total wall time: 0:00:50
