ITEM: TIMESTEP
505
ITEM: NUMBER OF ATOMS
31
ITEM: BOX BOUNDS xy xz yz pp pp pp
-1.1066205609961292e-01 1.4945960899823172e+01 5.0187681157862496e+00
-9.1531590947824079e-02 8.6013872979714847e+00 3.2138823728453385e-04
4.0318177911966801e-06 4.9912574349182215e+01 1.5942662366547471e-04
ITEM: ATOMS id type x y z fx fy fz
1 1 -0.102257 -0.08693 21.9615 1.7405e-06 1.9963e-06 1.99415e-05
2 1 1.14575 0.633609 21.9615 3.5819e-06 -3.11229e-06 1.34893e-05
3 1 11.1783 2.0822 21.9615 7.99935e-06 -3.75668e-06 4.97727e-06
4 1 2.39775 2.80214 21.9615 4.49369e-06 -1.85484e-06 7.23128e-06
5 1 2.39775 4.24322 21.9615 -4.38159e-07 -1.26173e-06 5.08934e-06
6 1 3.62885 4.9647 21.9615 -5.70611e-06 3.04034e-06 1.50549e-05
7 1 3.65421 6.42621 21.9615 -5.29386e-06 3.5072e-06 1.69967e-05
8 1 4.90723 7.17892 21.9615 -6.0852e-06 2.87784e-06 2.12686e-05
9 1 7.41652 8.59772 21.9615 4.35493e-06 -3.93351e-06 4.37087e-06
10 1 3.64975 0.633609 21.9615 2.56378e-06 -1.47024e-06 2.08039e-06
11 1 3.65478 2.0822 21.9615 6.80898e-06 -2.34608e-07 5.49724e-06
12 1 4.91984 2.81258 21.9615 2.27262e-06 5.36511e-06 5.57126e-06
13 1 4.88185 4.22707 21.9615 -3.84304e-06 4.82173e-06 1.69209e-05
14 1 5.88604 5.13766 21.9615 -6.77411e-06 3.38203e-06 2.23844e-05
15 1 6.17254 6.46261 21.9615 -4.81691e-06 2.9793e-06 1.57771e-05
16 1 7.41652 7.13696 21.9615 -4.34311e-06 -4.28067e-06 -6.66053e-06
17 1 4.89776 -0.0869296 21.9615 3.03263e-06 -1.26319e-06 -5.66532e-06
18 1 6.13814 0.618486 21.9615 8.43948e-07 5.65022e-06 -9.3821e-07
19 1 6.12583 2.07243 21.9615 7.24376e-06 8.21994e-06 -4.02512e-06
20 1 7.41652 2.48679 21.9615 5.86936e-06 1.03122e-05 -8.39179e-06
21 1 8.947 5.13766 21.9616 -7.00054e-06 -1.13467e-05 -5.53465e-05
22 1 8.6605 6.46261 21.9616 -4.49058e-06 -8.98313e-06 -3.53368e-05
23 1 9.92581 7.17892 21.9616 -5.63112e-06 -4.71356e-06 -1.75179e-05
24 1 7.41652 -0.0903081 21.9615 6.56672e-07 4.19174e-06 7.92537e-06
25 1 8.6949 0.618486 21.9615 5.50091e-07 2.67499e-06 1.15003e-05
26 1 8.70721 2.07243 21.9615 7.64479e-06 1.85104e-06 -3.43215e-06
27 1 9.9132 2.81258 21.9616 7.01353e-06 -5.0115e-06 -1.28467e-05
28 1 9.95119 4.22707 21.9616 1.78715e-06 -6.96662e-06 -3.46906e-05
29 1 11.2042 4.9647 21.9616 -3.45575e-06 -3.02815e-06 -1.23682e-05
30 1 11.1788 6.42621 21.9616 -3.76465e-06 -2.47928e-06 -6.7639e-06
31 1 12.4353 7.15162 21.9615 -6.81452e-06 2.82678e-06 7.90731e-06
