units           metal
atom_style      atomic
boundary        p p p
processors		  * * 1
read_data		    V1.data
Reading data file ...
  triclinic box = (0 0 0) to (9.8162093 8.5096963 49.912578) with tilt (4.9269689 9.6324442e-05 0.00014682442)
WARNING: Triclinic box skew is large. LAMMPS will run inefficiently. (src/domain.cpp:220)
  1 by 1 by 1 MPI processor grid
  reading atoms ...
  31 atoms
  read_data CPU = 0.022 seconds
mass            1 12.011

# Define potentials
pair_style      tersoff
pair_coeff      * * BNC.tersoff C
Reading tersoff potential file BNC.tersoff with DATE: 2013-03-21


# Variable
variable        thermofrq equal 10
variable        Nloop equal 100     # number of loop to run
variable        binding equal pe


# Output
thermo          ${thermofrq}
thermo          10
thermo_style    custom step temp pe lx ly lz pxx pyy pzz fmax fnorm
thermo_modify   line one format float %20.16g
thermo_modify   flush yes norm no lost warn

# Minimize the system in loops
timestep        1.0e-3
variable        nr loop ${Nloop}
variable        nr loop 100
label           loopmin

# Minimize the with cg + box/relax
  fix             frb all box/relax tri 0.0 couple none
  min_style       cg
  min_modify      line quadratic
  minimize        0.0 1.0e-3 10000 10000
Neighbor list info ...
  update: every = 1 steps, delay = 0 steps, check = yes
  max neighbors/atom: 2000, page size: 100000
  master list distance cutoff = 4.1
  ghost atom cutoff = 4.1
  binsize = 2.05, bins = 8 5 25
  1 neighbor lists, perpetual/occasional/extra = 1 0 0
  (1) pair tersoff, perpetual
      attributes: full, newton on
      pair build: full/bin/atomonly
      stencil: full/bin/3d
      bin: standard
WARNING: Energy due to 6 extra global DOFs will be included in minimizer energies
 (src/min.cpp:225)
Per MPI rank memory allocation (min/avg/max) = 4.202 | 4.202 | 4.202 Mbytes
   Step          Temp          PotEng           Lx             Ly             Lz            Pxx            Pyy            Pzz            Fmax          Fnorm     
         0                     0   -243.3083187390268         9.8162093397         8.5096962804         49.912578381    9550.204193858017    9391.971200932105 -0.002449487242641277    6.004581415861976    12.45382537348596
        10                     0   -243.3617316561817    9.826025549039702    8.518064440083075    49.91257836770357    8751.686922601732    8605.271087329285 -0.00244077545727291    6.036792110796656    12.47601726497229
        20                     0   -243.4114406961271    9.835841758379404    8.526431292348438    49.91257835318642    7961.591360500119    7826.951014033085 -0.002431267135746733    6.068040203766576      12.496630394723
        30                     0    -243.457664075175    9.845657967719106     8.53479665298164    49.91257833721615    7179.917916588888    7057.019412634454 -0.002420840444570501    6.098224776753546    12.51516204452443
        40                     0   -243.5006637883216    9.855474177058808    8.543160290358561    49.91257831948641    6406.697203700487    6295.515313075864 -0.002409333690991116     6.12720896581037     12.5309996322811
        50                     0    -243.540765293674     9.86529038639851    8.551521904333534    49.91257829958145    5642.005267926928    5542.523719882826 -0.002396526398237563     6.15480235007316    12.54336543611987
        60                     0   -243.5783900941991    9.875106595738211    8.559881091536301    49.91257827691708    4885.989560454912    4798.201755464126 -0.002382107606400666    6.180731175073532    12.55122443975091
        70                     0   -243.6141131333079    9.884922805077913    8.568237284734911    49.91257825063508    4138.916019991216    4062.825910448933 -0.002365619422985229    6.204584789596229    12.55312080524648
        80                     0   -243.6487722712945    9.894739014417615    8.576589638248389     49.9125782193996    3401.261389786918    3336.884408937987 -0.00234634830877625    6.225711345479638    12.54686371813802
        90                     0    -243.683700338689    9.904555223757317    8.584936787575854    49.91257818096116    2673.914193765931    2621.277674694442 -0.002323092739213581    6.242992105335553     12.5288569087847
       100                     0   -243.7212954053589    9.914371433097019    8.593276265364851    49.91257813107497     1958.68176327385    1917.822506133825 -0.002293588486261848    6.254274987736353    12.49244036856294
       110                     0    -243.766777242114    9.924187642436721    8.601602724052528    49.91257806014273    1259.894350193058    1230.842127959399 -0.002252730649255749    6.254589858731358    12.42275223596535
       120                     0   -243.8295945191294    9.933279469827491     8.60928930386201    49.91257794985709    639.5619563702886    621.3777383430951 -0.002191098736369172    6.231381811836134    12.28887213800586
       130                     0   -243.9145103250587    9.939500182063398    8.614504057372331    49.91257779122013    258.9723623576402    247.8167635712202 -0.002105051991055951    6.170311027112677    12.06925529162911
       140                     0   -244.0935872895775    9.944286821010534    8.618401698079396    49.91257744819539    83.50272411303226    76.03900960072953 -0.001924540914126231    5.994859935376493    11.56004709739845
       150                     0   -244.6685838026599    9.953632015716286    8.625789092239136    49.91257634228196    68.09693987983786    62.81684647478692 -0.001372476390735507    5.287179472952237    9.846571093902151
       160                     0   -245.1559565658749    9.963448225055988    8.633705757556266    49.91257542416083    59.74866920068952    56.01045010566964 -0.0009544889453954898    4.535958641058913    8.327223389962263
       170                     0   -245.5590072255328     9.97326443439569    8.641718281822804    49.91257468398337    50.31508145728453     47.5181209639994 -0.000659922832884747     3.80034265119319    7.007013243626254
       180                     0   -245.8991778144179    9.983080643735391    8.649765605070055    49.91257406710852     40.9295049919719    38.68488899119542 -0.0004554618763213567    3.095675031887044    5.819017247994406
       190                     0   -246.1857286545273    9.992896853075093    8.657801521445137     49.9125735343588    32.12877306823582    30.24987412644618 -0.0003158037691444922    2.434273465028108    4.713390137599403
       200                     0   -246.4208584542367     10.0027130624148    8.665795935292889    49.91257305270819     24.0529840140073    22.49599228589606 -0.0002202438102820816     1.82077373247874     3.65280360231096
       210                     0   -246.6030007566327     10.0125292717545    8.673729435894154    49.91257258990733    16.62762349430085    15.40872338513886 -0.0001523078293548194    1.252159504915583    2.613202868304004
       220                     0   -246.7306312859182    10.02195968264322    8.680060942700731    49.91257209603861    52.01889262127005     143.902464298187 -9.847462439834248e-05   0.7066586740295973     1.55326207570132
       230                     0   -246.7624092768878     10.0266352217944    8.684493816152628     49.9125718906875   -20.08020733399606    18.05252422379816 -8.028518424281275e-05   0.5231756733131976    1.168957833978334
       240                     0   -246.7780620637703    10.02878960791732    8.686507890856852    49.91257174616097   -6.138419255474871    3.844650621943539 -6.848416546023415e-05   0.4045962748688996   0.9171928547579149
       250                     0   -246.7911368253843    10.03138940127898    8.688612784448505    49.91257156579903   -3.859453726637172   -2.718852507001882 -5.496697466516519e-05   0.2781393812879778   0.6365196939312473
       260                     0    -246.800705239192    10.03455916652249    8.690992619810752    49.91257129328728   -1.193812750079617   -1.657107516004757 -3.71139046836521e-05   0.1318077722886537   0.2967706381689504
       270                     0   -246.8034301486738    10.03743928834391    8.692854942843077    49.91257079811069    4.843589160333166    5.024370342352478 -1.428120136930489e-05 0.006275784976342624  0.01678751835507773
       280                     0   -246.8034440114387    10.03747342427686    8.692744638999811    49.91257057999687    1.922512000192652    2.014534390568402 -8.842992477053218e-06 0.001768598802835419 0.004894761211189379
       290                     0   -246.8034444438177    10.03753794120916    8.692788445940046    49.91257053487348   -1.621652832143116   -1.734228294625942 -8.054997300996356e-06 0.0009548395670375687 0.002282816818520656
       300                     0   -246.8034446762317    10.03751983107926    8.692747505007294    49.91257040432996    1.030544449495292     1.15499356906755 -6.174810104713418e-06 0.0005961683598108003 0.001460334482580901
       306                     0   -246.8034446921972    10.03753635587247     8.69276420948178    49.91257039083301  -0.1610148185142308  -0.1854650338789041 -6.007045094201583e-06 0.0001061109044988573 0.0003467582211582736
Loop time of 0.0252039 on 1 procs for 306 steps with 31 atoms

24.8% CPU use with 1 MPI tasks x no OpenMP threads

Minimization stats:
  Stopping criterion = force tolerance
  Energy initial, next-to-last, final = 
     -243.308318739027   -246.80344469144  -246.803444692197
  Force two-norm initial, final = 37.017349 0.00079152769
  Force max component initial, final = 24.852505 0.00049351779
  Final line search alpha, max atom move = 0.084219907 4.1564023e-05
  Iterations, force evaluations = 306 346

MPI task timing breakdown:
Section |  min time  |  avg time  |  max time  |%varavg| %total
---------------------------------------------------------------
Pair    | 0.0091048  | 0.0091048  | 0.0091048  |   0.0 | 36.12
Neigh   | 0          | 0          | 0          |   0.0 |  0.00
Comm    | 0.00014916 | 0.00014916 | 0.00014916 |   0.0 |  0.59
Output  | 0.014701   | 0.014701   | 0.014701   |   0.0 | 58.33
Modify  | 0          | 0          | 0          |   0.0 |  0.00
Other   |            | 0.001248   |            |       |  4.95

Nlocal:             31 ave          31 max          31 min
Histogram: 1 0 0 0 0 0 0 0 0 0
Nghost:             81 ave          81 max          81 min
Histogram: 1 0 0 0 0 0 0 0 0 0
Neighs:              0 ave           0 max           0 min
Histogram: 1 0 0 0 0 0 0 0 0 0
FullNghs:          540 ave         540 max         540 min
Histogram: 1 0 0 0 0 0 0 0 0 0

Total # of neighbors = 540
Ave neighs/atom = 17.419355
Neighbor list builds = 0
Dangerous builds = 0

# Minimize the with fire
  unfix           frb
  min_style       fire
  minimize        0.0 1.0e-3 10000 10000
  Parameters for fire:
    dmax  delaystep dtgrow dtshrink alpha0 alphashrink tmax tmin   integrator   halfstepback   abcfire  
     0.1     20      1.1     0.5     0.25     0.99      10  0.02 eulerimplicit      yes          no     
Per MPI rank memory allocation (min/avg/max) = 3.077 | 3.077 | 3.077 Mbytes
   Step          Temp          PotEng           Lx             Ly             Lz            Pxx            Pyy            Pzz            Fmax          Fnorm     
       306                     0   -246.8034446921971    10.03753635587247     8.69276420948178    49.91257039083301  -0.1610148186052002  -0.1854650338213961 -6.007045095996473e-06 0.0001061109044453445 0.0003467582212106759
       307  1.245431369496019e-08   -246.8034446922924    10.03753635587247     8.69276420948178    49.91257039083301  -0.1613441828545416  -0.1874779091921393 -5.994762264798485e-06 0.000104690362697113 0.0003347527855350705
Loop time of 0.000479784 on 1 procs for 1 steps with 31 atoms

8.8% CPU use with 1 MPI tasks x no OpenMP threads

Minimization stats:
  Stopping criterion = force tolerance
  Energy initial, next-to-last, final = 
     -246.803444692197  -246.803444692197  -246.803444692292
  Force two-norm initial, final = 0.00034675822 0.00033475279
  Force max component initial, final = 0.0001061109 0.00010469036
  Final line search alpha, max atom move = 0 0
  Iterations, force evaluations = 1 2

MPI task timing breakdown:
Section |  min time  |  avg time  |  max time  |%varavg| %total
---------------------------------------------------------------
Pair    | 7.9164e-05 | 7.9164e-05 | 7.9164e-05 |   0.0 | 16.50
Neigh   | 0          | 0          | 0          |   0.0 |  0.00
Comm    | 2.158e-06  | 2.158e-06  | 2.158e-06  |   0.0 |  0.45
Output  | 0          | 0          | 0          |   0.0 |  0.00
Modify  | 0          | 0          | 0          |   0.0 |  0.00
Other   |            | 0.0003985  |            |       | 83.05

Nlocal:             31 ave          31 max          31 min
Histogram: 1 0 0 0 0 0 0 0 0 0
Nghost:             81 ave          81 max          81 min
Histogram: 1 0 0 0 0 0 0 0 0 0
Neighs:              0 ave           0 max           0 min
Histogram: 1 0 0 0 0 0 0 0 0 0
FullNghs:          534 ave         534 max         534 min
Histogram: 1 0 0 0 0 0 0 0 0 0

Total # of neighbors = 534
Ave neighs/atom = 17.225806
Neighbor list builds = 0
Dangerous builds = 0

next nr
jump ${simname}.in loopmin
jump Tersoff.in loopmin

# Minimize the with cg + box/relax
  fix             frb all box/relax tri 0.0 couple none
  min_style       cg
  min_modify      line quadratic
  minimize        0.0 1.0e-3 10000 10000
WARNING: Energy due to 6 extra global DOFs will be included in minimizer energies
 (src/min.cpp:225)
Per MPI rank memory allocation (min/avg/max) = 4.202 | 4.202 | 4.202 Mbytes
   Step          Temp          PotEng           Lx             Ly             Lz            Pxx            Pyy            Pzz            Fmax          Fnorm     
       307  1.245431369496019e-08   -246.8034446922923    10.03753635587247     8.69276420948178    49.91257039083301  -0.1613441829129667  -0.1874779091320173 -5.994762284382744e-06 0.000104690362721982 0.0003347527856665123
       308  1.245431369496019e-08   -246.8034446924847    10.03753318172673     8.69276101533827    49.91257039024617  0.06521245848544338  0.07230330808103323 -5.987372947596884e-06 0.0001192076630260885 0.0003356043518260226
Loop time of 0.000697164 on 1 procs for 1 steps with 31 atoms

6.9% CPU use with 1 MPI tasks x no OpenMP threads

Minimization stats:
  Stopping criterion = force tolerance
  Energy initial, next-to-last, final = 
     -246.803444692292  -246.803444692292  -246.803444692485
  Force two-norm initial, final = 0.0008051106 0.000484919
  Force max component initial, final = 0.00050960626 0.00022905888
  Final line search alpha, max atom move = 0.19622993 4.4948208e-05
  Iterations, force evaluations = 1 2

MPI task timing breakdown:
Section |  min time  |  avg time  |  max time  |%varavg| %total
---------------------------------------------------------------
Pair    | 9.2728e-05 | 9.2728e-05 | 9.2728e-05 |   0.0 | 13.30
Neigh   | 0          | 0          | 0          |   0.0 |  0.00
Comm    | 2.474e-06  | 2.474e-06  | 2.474e-06  |   0.0 |  0.35
Output  | 0          | 0          | 0          |   0.0 |  0.00
Modify  | 0          | 0          | 0          |   0.0 |  0.00
Other   |            | 0.000602   |            |       | 86.34

Nlocal:             31 ave          31 max          31 min
Histogram: 1 0 0 0 0 0 0 0 0 0
Nghost:             81 ave          81 max          81 min
Histogram: 1 0 0 0 0 0 0 0 0 0
Neighs:              0 ave           0 max           0 min
Histogram: 1 0 0 0 0 0 0 0 0 0
FullNghs:          534 ave         534 max         534 min
Histogram: 1 0 0 0 0 0 0 0 0 0

Total # of neighbors = 534
Ave neighs/atom = 17.225806
Neighbor list builds = 0
Dangerous builds = 0

# Minimize the with fire
  unfix           frb
  min_style       fire
  minimize        0.0 1.0e-3 10000 10000
  Parameters for fire:
    dmax  delaystep dtgrow dtshrink alpha0 alphashrink tmax tmin   integrator   halfstepback   abcfire  
     0.1     20      1.1     0.5     0.25     0.99      10  0.02 eulerimplicit      yes          no     
Per MPI rank memory allocation (min/avg/max) = 3.077 | 3.077 | 3.077 Mbytes
   Step          Temp          PotEng           Lx             Ly             Lz            Pxx            Pyy            Pzz            Fmax          Fnorm     
       308                     0   -246.8034446924849    10.03753318172673     8.69276101533827    49.91257039024617  0.06521244480722979   0.0723032902532597 -5.991468859541279e-06 0.0001192076629896732 0.0003356043517812292
       309  1.166598557064176e-08   -246.8034446925741    10.03753318172673     8.69276101533827    49.91257039024617  0.06467818385302437  0.06967235736269368 -5.979232773036087e-06 0.0001172464373286886 0.0003258486350680455
Loop time of 0.000535051 on 1 procs for 1 steps with 31 atoms

7.5% CPU use with 1 MPI tasks x no OpenMP threads

Minimization stats:
  Stopping criterion = force tolerance
  Energy initial, next-to-last, final = 
     -246.803444692485  -246.803444692485  -246.803444692574
  Force two-norm initial, final = 0.00033560435 0.00032584864
  Force max component initial, final = 0.00011920766 0.00011724644
  Final line search alpha, max atom move = 0 0
  Iterations, force evaluations = 1 2

MPI task timing breakdown:
Section |  min time  |  avg time  |  max time  |%varavg| %total
---------------------------------------------------------------
Pair    | 7.8837e-05 | 7.8837e-05 | 7.8837e-05 |   0.0 | 14.73
Neigh   | 0          | 0          | 0          |   0.0 |  0.00
Comm    | 2.055e-06  | 2.055e-06  | 2.055e-06  |   0.0 |  0.38
Output  | 0          | 0          | 0          |   0.0 |  0.00
Modify  | 0          | 0          | 0          |   0.0 |  0.00
Other   |            | 0.0004542  |            |       | 84.88

Nlocal:             31 ave          31 max          31 min
Histogram: 1 0 0 0 0 0 0 0 0 0
Nghost:             81 ave          81 max          81 min
Histogram: 1 0 0 0 0 0 0 0 0 0
Neighs:              0 ave           0 max           0 min
Histogram: 1 0 0 0 0 0 0 0 0 0
FullNghs:          534 ave         534 max         534 min
Histogram: 1 0 0 0 0 0 0 0 0 0

Total # of neighbors = 534
Ave neighs/atom = 17.225806
Neighbor list builds = 0
Dangerous builds = 0

next nr
jump ${simname}.in loopmin
jump Tersoff.in loopmin

# Minimize the with cg + box/relax
  fix             frb all box/relax tri 0.0 couple none
  min_style       cg
  min_modify      line quadratic
  minimize        0.0 1.0e-3 10000 10000
WARNING: Energy due to 6 extra global DOFs will be included in minimizer energies
 (src/min.cpp:225)
Per MPI rank memory allocation (min/avg/max) = 4.202 | 4.202 | 4.202 Mbytes
   Step          Temp          PotEng           Lx             Ly             Lz            Pxx            Pyy            Pzz            Fmax          Fnorm     
       309  1.166598557064176e-08   -246.8034446925738    10.03753318172673     8.69276101533827    49.91257039024617   0.0646781838354043  0.06967235748424477 -5.979232760392067e-06 0.0001172464373544457 0.0003258486351533215
       310  1.166598557064176e-08    -246.803444692691    10.03753495086673    8.692762665762579    49.91257038943234 -0.06223284928539984  -0.0688886150620337 -5.969106353992268e-06 0.0001064688145770987 0.0003168372126562852
Loop time of 0.000395783 on 1 procs for 1 steps with 31 atoms

8.6% CPU use with 1 MPI tasks x no OpenMP threads

Minimization stats:
  Stopping criterion = force tolerance
  Energy initial, next-to-last, final = 
     -246.803444692574  -246.803444692574  -246.803444692691
  Force two-norm initial, final = 0.00047617073 0.0004346208
  Force max component initial, final = 0.00023191756 0.00018725437
  Final line search alpha, max atom move = 0.4311877 8.0741778e-05
  Iterations, force evaluations = 1 2

MPI task timing breakdown:
Section |  min time  |  avg time  |  max time  |%varavg| %total
---------------------------------------------------------------
Pair    | 7.5127e-05 | 7.5127e-05 | 7.5127e-05 |   0.0 | 18.98
Neigh   | 0          | 0          | 0          |   0.0 |  0.00
Comm    | 1.898e-06  | 1.898e-06  | 1.898e-06  |   0.0 |  0.48
Output  | 0          | 0          | 0          |   0.0 |  0.00
Modify  | 0          | 0          | 0          |   0.0 |  0.00
Other   |            | 0.0003188  |            |       | 80.54

Nlocal:             31 ave          31 max          31 min
Histogram: 1 0 0 0 0 0 0 0 0 0
Nghost:             81 ave          81 max          81 min
Histogram: 1 0 0 0 0 0 0 0 0 0
Neighs:              0 ave           0 max           0 min
Histogram: 1 0 0 0 0 0 0 0 0 0
FullNghs:          534 ave         534 max         534 min
Histogram: 1 0 0 0 0 0 0 0 0 0

Total # of neighbors = 534
Ave neighs/atom = 17.225806
Neighbor list builds = 0
Dangerous builds = 0

# Minimize the with fire
  unfix           frb
  min_style       fire
  minimize        0.0 1.0e-3 10000 10000
  Parameters for fire:
    dmax  delaystep dtgrow dtshrink alpha0 alphashrink tmax tmin   integrator   halfstepback   abcfire  
     0.1     20      1.1     0.5     0.25     0.99      10  0.02 eulerimplicit      yes          no     
Per MPI rank memory allocation (min/avg/max) = 3.077 | 3.077 | 3.077 Mbytes
   Step          Temp          PotEng           Lx             Ly             Lz            Pxx            Pyy            Pzz            Fmax          Fnorm     
       310                     0   -246.8034446926908    10.03753495086673    8.692762665762579    49.91257038943234 -0.06223286108242278 -0.06888863204156399 -5.973186653976087e-06 0.000106468814588645 0.0003168372126681238
       311  1.039773238655527e-08   -246.8034446927704    10.03753495086673    8.692762665762579    49.91257038943234 -0.06273109804066886 -0.07103615419206606 -5.961005186946707e-06 0.0001048676233565971 0.0003082477759863153
Loop time of 0.000311494 on 1 procs for 1 steps with 31 atoms

14.8% CPU use with 1 MPI tasks x no OpenMP threads

Minimization stats:
  Stopping criterion = force tolerance
  Energy initial, next-to-last, final = 
     -246.803444692691  -246.803444692691   -246.80344469277
  Force two-norm initial, final = 0.00031683721 0.00030824778
  Force max component initial, final = 0.00010646881 0.00010486762
  Final line search alpha, max atom move = 0 0
  Iterations, force evaluations = 1 2

MPI task timing breakdown:
Section |  min time  |  avg time  |  max time  |%varavg| %total
---------------------------------------------------------------
Pair    | 9.5248e-05 | 9.5248e-05 | 9.5248e-05 |   0.0 | 30.58
Neigh   | 0          | 0          | 0          |   0.0 |  0.00
Comm    | 2.214e-06  | 2.214e-06  | 2.214e-06  |   0.0 |  0.71
Output  | 0          | 0          | 0          |   0.0 |  0.00
Modify  | 0          | 0          | 0          |   0.0 |  0.00
Other   |            | 0.000214   |            |       | 68.71

Nlocal:             31 ave          31 max          31 min
Histogram: 1 0 0 0 0 0 0 0 0 0
Nghost:             81 ave          81 max          81 min
Histogram: 1 0 0 0 0 0 0 0 0 0
Neighs:              0 ave           0 max           0 min
Histogram: 1 0 0 0 0 0 0 0 0 0
FullNghs:          534 ave         534 max         534 min
Histogram: 1 0 0 0 0 0 0 0 0 0

Total # of neighbors = 534
Ave neighs/atom = 17.225806
Neighbor list builds = 0
Dangerous builds = 0

next nr
jump ${simname}.in loopmin
jump Tersoff.in loopmin

# Minimize the with cg + box/relax
  fix             frb all box/relax tri 0.0 couple none
  min_style       cg
  min_modify      line quadratic
  minimize        0.0 1.0e-3 10000 10000
WARNING: Energy due to 6 extra global DOFs will be included in minimizer energies
 (src/min.cpp:225)
Per MPI rank memory allocation (min/avg/max) = 4.202 | 4.202 | 4.202 Mbytes
   Step          Temp          PotEng           Lx             Ly             Lz            Pxx            Pyy            Pzz            Fmax          Fnorm     
       311  1.039773238655527e-08   -246.8034446927705    10.03753495086673    8.692762665762579    49.91257038943234 -0.06273109821676096 -0.07103615406005902 -5.961005182678852e-06 0.0001048676233184054 0.0003082477760078446
       312  1.039773238655527e-08   -246.8034446928658    10.03753315939754    8.692760908904578    49.91257038858526  0.06453680701780208  0.07018015403608187 -5.950417327329003e-06 0.0001115646832987593 0.0002990186727621868
Loop time of 0.000419396 on 1 procs for 1 steps with 31 atoms

15.7% CPU use with 1 MPI tasks x no OpenMP threads

Minimization stats:
  Stopping criterion = force tolerance
  Energy initial, next-to-last, final = 
      -246.80344469277   -246.80344469277  -246.803444692866
  Force two-norm initial, final = 0.00042814312 0.00042784878
  Force max component initial, final = 0.00019309188 0.00019076497
  Final line search alpha, max atom move = 0.51788818 9.8794921e-05
  Iterations, force evaluations = 1 2

MPI task timing breakdown:
Section |  min time  |  avg time  |  max time  |%varavg| %total
---------------------------------------------------------------
Pair    | 8.2267e-05 | 8.2267e-05 | 8.2267e-05 |   0.0 | 19.62
Neigh   | 0          | 0          | 0          |   0.0 |  0.00
Comm    | 2.465e-06  | 2.465e-06  | 2.465e-06  |   0.0 |  0.59
Output  | 0          | 0          | 0          |   0.0 |  0.00
Modify  | 0          | 0          | 0          |   0.0 |  0.00
Other   |            | 0.0003347  |            |       | 79.80

Nlocal:             31 ave          31 max          31 min
Histogram: 1 0 0 0 0 0 0 0 0 0
Nghost:             81 ave          81 max          81 min
Histogram: 1 0 0 0 0 0 0 0 0 0
Neighs:              0 ave           0 max           0 min
Histogram: 1 0 0 0 0 0 0 0 0 0
FullNghs:          534 ave         534 max         534 min
Histogram: 1 0 0 0 0 0 0 0 0 0

Total # of neighbors = 534
Ave neighs/atom = 17.225806
Neighbor list builds = 0
Dangerous builds = 0

# Minimize the with fire
  unfix           frb
  min_style       fire
  minimize        0.0 1.0e-3 10000 10000
  Parameters for fire:
    dmax  delaystep dtgrow dtshrink alpha0 alphashrink tmax tmin   integrator   halfstepback   abcfire  
     0.1     20      1.1     0.5     0.25     0.99      10  0.02 eulerimplicit      yes          no     
Per MPI rank memory allocation (min/avg/max) = 3.077 | 3.077 | 3.077 Mbytes
   Step          Temp          PotEng           Lx             Ly             Lz            Pxx            Pyy            Pzz            Fmax          Fnorm     
       312                     0   -246.8034446928657    10.03753315939754    8.692760908904578    49.91257038858526  0.06453679661868576  0.07018013920505545 -5.954479407690621e-06 0.0001115646833138584 0.000299018672804533
       313  9.261106673077781e-09    -246.803444692937    10.03753315939754    8.692760908904578    49.91257038858526  0.06387941863434907  0.06778998192192055 -5.94235349755139e-06 0.000109706764238382 0.0002926131700387964
Loop time of 0.000390051 on 1 procs for 1 steps with 31 atoms

12.6% CPU use with 1 MPI tasks x no OpenMP threads

Minimization stats:
  Stopping criterion = force tolerance
  Energy initial, next-to-last, final = 
     -246.803444692866  -246.803444692866  -246.803444692937
  Force two-norm initial, final = 0.00029901867 0.00029261317
  Force max component initial, final = 0.00011156468 0.00010970676
  Final line search alpha, max atom move = 0 0
  Iterations, force evaluations = 1 2

MPI task timing breakdown:
Section |  min time  |  avg time  |  max time  |%varavg| %total
---------------------------------------------------------------
Pair    | 0.0001031  | 0.0001031  | 0.0001031  |   0.0 | 26.43
Neigh   | 0          | 0          | 0          |   0.0 |  0.00
Comm    | 2.853e-06  | 2.853e-06  | 2.853e-06  |   0.0 |  0.73
Output  | 0          | 0          | 0          |   0.0 |  0.00
Modify  | 0          | 0          | 0          |   0.0 |  0.00
Other   |            | 0.0002841  |            |       | 72.84

Nlocal:             31 ave          31 max          31 min
Histogram: 1 0 0 0 0 0 0 0 0 0
Nghost:             81 ave          81 max          81 min
Histogram: 1 0 0 0 0 0 0 0 0 0
Neighs:              0 ave           0 max           0 min
Histogram: 1 0 0 0 0 0 0 0 0 0
FullNghs:          534 ave         534 max         534 min
Histogram: 1 0 0 0 0 0 0 0 0 0

Total # of neighbors = 534
Ave neighs/atom = 17.225806
Neighbor list builds = 0
Dangerous builds = 0

next nr
jump ${simname}.in loopmin
jump Tersoff.in loopmin

# Minimize the with cg + box/relax
  fix             frb all box/relax tri 0.0 couple none
  min_style       cg
  min_modify      line quadratic
  minimize        0.0 1.0e-3 10000 10000
WARNING: Energy due to 6 extra global DOFs will be included in minimizer energies
 (src/min.cpp:225)
Per MPI rank memory allocation (min/avg/max) = 4.202 | 4.202 | 4.202 Mbytes
   Step          Temp          PotEng           Lx             Ly             Lz            Pxx            Pyy            Pzz            Fmax          Fnorm     
       313  9.261106673077781e-09   -246.8034446929369    10.03753315939754    8.692760908904578    49.91257038858526  0.06387941881094461  0.06778998182258848 -5.942353492765009e-06 0.000109706764238382 0.0002926131700964314
       314  9.261106673077781e-09   -246.8034446930251     10.0375348743495    8.692762485017159    49.91257038779143 -0.05922019951512906 -0.06439144485565297 -5.932503060550821e-06 9.94470074289211e-05 0.000285455075416528
Loop time of 0.000430179 on 1 procs for 1 steps with 31 atoms

10.5% CPU use with 1 MPI tasks x no OpenMP threads

Minimization stats:
  Stopping criterion = force tolerance
  Energy initial, next-to-last, final = 
     -246.803444692937  -246.803444692937  -246.803444693025
  Force two-norm initial, final = 0.00042087486 0.00039542252
  Force max component initial, final = 0.00018426792 0.00017503006
  Final line search alpha, max atom move = 0.54268805 9.4986723e-05
  Iterations, force evaluations = 1 2

MPI task timing breakdown:
Section |  min time  |  avg time  |  max time  |%varavg| %total
---------------------------------------------------------------
Pair    | 8.4246e-05 | 8.4246e-05 | 8.4246e-05 |   0.0 | 19.58
Neigh   | 0          | 0          | 0          |   0.0 |  0.00
Comm    | 2.477e-06  | 2.477e-06  | 2.477e-06  |   0.0 |  0.58
Output  | 0          | 0          | 0          |   0.0 |  0.00
Modify  | 0          | 0          | 0          |   0.0 |  0.00
Other   |            | 0.0003435  |            |       | 79.84

Nlocal:             31 ave          31 max          31 min
Histogram: 1 0 0 0 0 0 0 0 0 0
Nghost:             81 ave          81 max          81 min
Histogram: 1 0 0 0 0 0 0 0 0 0
Neighs:              0 ave           0 max           0 min
Histogram: 1 0 0 0 0 0 0 0 0 0
FullNghs:          534 ave         534 max         534 min
Histogram: 1 0 0 0 0 0 0 0 0 0

Total # of neighbors = 534
Ave neighs/atom = 17.225806
Neighbor list builds = 0
Dangerous builds = 0

# Minimize the with fire
  unfix           frb
  min_style       fire
  minimize        0.0 1.0e-3 10000 10000
  Parameters for fire:
    dmax  delaystep dtgrow dtshrink alpha0 alphashrink tmax tmin   integrator   halfstepback   abcfire  
     0.1     20      1.1     0.5     0.25     0.99      10  0.02 eulerimplicit      yes          no     
Per MPI rank memory allocation (min/avg/max) = 3.077 | 3.077 | 3.077 Mbytes
   Step          Temp          PotEng           Lx             Ly             Lz            Pxx            Pyy            Pzz            Fmax          Fnorm     
       314                     0   -246.8034446930251     10.0375348743495    8.692762485017159    49.91257038779143  -0.0592202084569726 -0.06439145821914338 -5.936546566511691e-06 9.944700740938117e-05 0.0002854550753452977
       315  8.439987544753556e-09   -246.8034446930899     10.0375348743495    8.692762485017159    49.91257038779143 -0.05977716477302005 -0.06636334584542641 -5.924473769535176e-06 9.795511744314922e-05 0.0002796901305275919
Loop time of 0.000331524 on 1 procs for 1 steps with 31 atoms

13.6% CPU use with 1 MPI tasks x no OpenMP threads

Minimization stats:
  Stopping criterion = force tolerance
  Energy initial, next-to-last, final = 
     -246.803444693025  -246.803444693025   -246.80344469309
  Force two-norm initial, final = 0.00028545508 0.00027969013
  Force max component initial, final = 9.9447007e-05 9.7955117e-05
  Final line search alpha, max atom move = 0 0
  Iterations, force evaluations = 1 2

MPI task timing breakdown:
Section |  min time  |  avg time  |  max time  |%varavg| %total
---------------------------------------------------------------
Pair    | 0.00010832 | 0.00010832 | 0.00010832 |   0.0 | 32.67
Neigh   | 0          | 0          | 0          |   0.0 |  0.00
Comm    | 2.912e-06  | 2.912e-06  | 2.912e-06  |   0.0 |  0.88
Output  | 0          | 0          | 0          |   0.0 |  0.00
Modify  | 0          | 0          | 0          |   0.0 |  0.00
Other   |            | 0.0002203  |            |       | 66.45

Nlocal:             31 ave          31 max          31 min
Histogram: 1 0 0 0 0 0 0 0 0 0
Nghost:             81 ave          81 max          81 min
Histogram: 1 0 0 0 0 0 0 0 0 0
Neighs:              0 ave           0 max           0 min
Histogram: 1 0 0 0 0 0 0 0 0 0
FullNghs:          534 ave         534 max         534 min
Histogram: 1 0 0 0 0 0 0 0 0 0

Total # of neighbors = 534
Ave neighs/atom = 17.225806
Neighbor list builds = 0
Dangerous builds = 0

next nr
jump ${simname}.in loopmin
jump Tersoff.in loopmin

# Minimize the with cg + box/relax
  fix             frb all box/relax tri 0.0 couple none
  min_style       cg
  min_modify      line quadratic
  minimize        0.0 1.0e-3 10000 10000
WARNING: Energy due to 6 extra global DOFs will be included in minimizer energies
 (src/min.cpp:225)
Per MPI rank memory allocation (min/avg/max) = 4.202 | 4.202 | 4.202 Mbytes
   Step          Temp          PotEng           Lx             Ly             Lz            Pxx            Pyy            Pzz            Fmax          Fnorm     
       315  8.439987544753556e-09   -246.8034446930899     10.0375348743495    8.692762485017159    49.91257038779143  -0.0597771647600164 -0.06636334597481947 -5.924473771808705e-06 9.795511743426744e-05 0.0002796901305496341
       316  8.439987544753556e-09   -246.8034446931682    10.03753319631222    8.692760871679283    49.91257038696388  0.05927623179218196  0.06341394875843728 -5.914160320857712e-06 0.0001041696987007512 0.0002744905384180606
Loop time of 0.000331226 on 1 procs for 1 steps with 31 atoms

14.2% CPU use with 1 MPI tasks x no OpenMP threads

Minimization stats:
  Stopping criterion = force tolerance
  Energy initial, next-to-last, final = 
      -246.80344469309   -246.80344469309  -246.803444693168
  Force two-norm initial, final = 0.00039165488 0.00039002634
  Force max component initial, final = 0.00018039015 0.00017237295
  Final line search alpha, max atom move = 0.554354 9.5555632e-05
  Iterations, force evaluations = 1 2

MPI task timing breakdown:
Section |  min time  |  avg time  |  max time  |%varavg| %total
---------------------------------------------------------------
Pair    | 7.775e-05  | 7.775e-05  | 7.775e-05  |   0.0 | 23.47
Neigh   | 0          | 0          | 0          |   0.0 |  0.00
Comm    | 2.299e-06  | 2.299e-06  | 2.299e-06  |   0.0 |  0.69
Output  | 0          | 0          | 0          |   0.0 |  0.00
Modify  | 0          | 0          | 0          |   0.0 |  0.00
Other   |            | 0.0002512  |            |       | 75.83

Nlocal:             31 ave          31 max          31 min
Histogram: 1 0 0 0 0 0 0 0 0 0
Nghost:             81 ave          81 max          81 min
Histogram: 1 0 0 0 0 0 0 0 0 0
Neighs:              0 ave           0 max           0 min
Histogram: 1 0 0 0 0 0 0 0 0 0
FullNghs:          534 ave         534 max         534 min
Histogram: 1 0 0 0 0 0 0 0 0 0

Total # of neighbors = 534
Ave neighs/atom = 17.225806
Neighbor list builds = 0
Dangerous builds = 0

# Minimize the with fire
  unfix           frb
  min_style       fire
  minimize        0.0 1.0e-3 10000 10000
  Parameters for fire:
    dmax  delaystep dtgrow dtshrink alpha0 alphashrink tmax tmin   integrator   halfstepback   abcfire  
     0.1     20      1.1     0.5     0.25     0.99      10  0.02 eulerimplicit      yes          no     
Per MPI rank memory allocation (min/avg/max) = 3.077 | 3.077 | 3.077 Mbytes
   Step          Temp          PotEng           Lx             Ly             Lz            Pxx            Pyy            Pzz            Fmax          Fnorm     
       316                     0   -246.8034446931683    10.03753319631222    8.692760871679283    49.91257038696388  0.05927622374988204  0.06341393697948126 -5.918186120241012e-06 0.0001041696986900931 0.0002744905384080545
       317  7.804067651614098e-09   -246.8034446932281    10.03753319631222    8.692760871679283    49.91257038696388   0.0585827679491957  0.06122200222942193 -5.906167407391399e-06 0.0001024500544550833 0.0002699724481947208
Loop time of 0.000437366 on 1 procs for 1 steps with 31 atoms

0.0% CPU use with 1 MPI tasks x no OpenMP threads

Minimization stats:
  Stopping criterion = force tolerance
  Energy initial, next-to-last, final = 
     -246.803444693168  -246.803444693168  -246.803444693228
  Force two-norm initial, final = 0.00027449054 0.00026997245
  Force max component initial, final = 0.0001041697 0.00010245005
  Final line search alpha, max atom move = 0 0
  Iterations, force evaluations = 1 2

MPI task timing breakdown:
Section |  min time  |  avg time  |  max time  |%varavg| %total
---------------------------------------------------------------
Pair    | 0.00011985 | 0.00011985 | 0.00011985 |   0.0 | 27.40
Neigh   | 0          | 0          | 0          |   0.0 |  0.00
Comm    | 3.187e-06  | 3.187e-06  | 3.187e-06  |   0.0 |  0.73
Output  | 0          | 0          | 0          |   0.0 |  0.00
Modify  | 0          | 0          | 0          |   0.0 |  0.00
Other   |            | 0.0003143  |            |       | 71.87

Nlocal:             31 ave          31 max          31 min
Histogram: 1 0 0 0 0 0 0 0 0 0
Nghost:             81 ave          81 max          81 min
Histogram: 1 0 0 0 0 0 0 0 0 0
Neighs:              0 ave           0 max           0 min
Histogram: 1 0 0 0 0 0 0 0 0 0
FullNghs:          534 ave         534 max         534 min
Histogram: 1 0 0 0 0 0 0 0 0 0

Total # of neighbors = 534
Ave neighs/atom = 17.225806
Neighbor list builds = 0
Dangerous builds = 0

next nr
jump ${simname}.in loopmin
jump Tersoff.in loopmin

# Minimize the with cg + box/relax
  fix             frb all box/relax tri 0.0 couple none
  min_style       cg
  min_modify      line quadratic
  minimize        0.0 1.0e-3 10000 10000
WARNING: Energy due to 6 extra global DOFs will be included in minimizer energies
 (src/min.cpp:225)
Per MPI rank memory allocation (min/avg/max) = 4.202 | 4.202 | 4.202 Mbytes
   Step          Temp          PotEng           Lx             Ly             Lz            Pxx            Pyy            Pzz            Fmax          Fnorm     
       317  7.804067651614098e-09   -246.8034446932281    10.03753319631222    8.692760871679283    49.91257038696388  0.05858276795326654  0.06122200229085098 -5.906167414411423e-06 0.0001024500544426488 0.0002699724481035534
       318  7.804067651614098e-09   -246.8034446933027    10.03753479657278    8.692762319981036    49.91257038616108 -0.05633309271302901 -0.06033444189268709 -5.896230690566611e-06 9.293845126823186e-05 0.0002644210069464455
Loop time of 0.000620001 on 1 procs for 1 steps with 31 atoms

0.0% CPU use with 1 MPI tasks x no OpenMP threads

Minimization stats:
  Stopping criterion = force tolerance
  Energy initial, next-to-last, final = 
     -246.803444693228  -246.803444693228  -246.803444693303
  Force two-norm initial, final = 0.00038434732 0.00036975261
  Force max component initial, final = 0.00016641473 0.00016400223
  Final line search alpha, max atom move = 0.60090836 9.8550311e-05
  Iterations, force evaluations = 1 2

MPI task timing breakdown:
Section |  min time  |  avg time  |  max time  |%varavg| %total
---------------------------------------------------------------
Pair    | 9.6443e-05 | 9.6443e-05 | 9.6443e-05 |   0.0 | 15.56
Neigh   | 0          | 0          | 0          |   0.0 |  0.00
Comm    | 2.991e-06  | 2.991e-06  | 2.991e-06  |   0.0 |  0.48
Output  | 0          | 0          | 0          |   0.0 |  0.00
Modify  | 0          | 0          | 0          |   0.0 |  0.00
Other   |            | 0.0005206  |            |       | 83.96

Nlocal:             31 ave          31 max          31 min
Histogram: 1 0 0 0 0 0 0 0 0 0
Nghost:             81 ave          81 max          81 min
Histogram: 1 0 0 0 0 0 0 0 0 0
Neighs:              0 ave           0 max           0 min
Histogram: 1 0 0 0 0 0 0 0 0 0
FullNghs:          534 ave         534 max         534 min
Histogram: 1 0 0 0 0 0 0 0 0 0

Total # of neighbors = 534
Ave neighs/atom = 17.225806
Neighbor list builds = 0
Dangerous builds = 0

# Minimize the with fire
  unfix           frb
  min_style       fire
  minimize        0.0 1.0e-3 10000 10000
  Parameters for fire:
    dmax  delaystep dtgrow dtshrink alpha0 alphashrink tmax tmin   integrator   halfstepback   abcfire  
     0.1     20      1.1     0.5     0.25     0.99      10  0.02 eulerimplicit      yes          no     
Per MPI rank memory allocation (min/avg/max) = 3.077 | 3.077 | 3.077 Mbytes
   Step          Temp          PotEng           Lx             Ly             Lz            Pxx            Pyy            Pzz            Fmax          Fnorm     
       318                     0   -246.8034446933029    10.03753479657278    8.692762319981036    49.91257038616108 -0.05633310006231117 -0.06033445302124057 -5.900238409792652e-06 9.293845135172063e-05 0.0002644210069265392
       319  7.241994271638603e-09   -246.8034446933584    10.03753479657278    8.692762319981036    49.91257038616108 -0.05689390718510001 -0.06216583046825715 -5.888272437445303e-06 9.15687695632883e-05 0.0002602511979575761
Loop time of 0.000387527 on 1 procs for 1 steps with 31 atoms

0.0% CPU use with 1 MPI tasks x no OpenMP threads

Minimization stats:
  Stopping criterion = force tolerance
  Energy initial, next-to-last, final = 
     -246.803444693303  -246.803444693303  -246.803444693358
  Force two-norm initial, final = 0.00026442101 0.0002602512
  Force max component initial, final = 9.2938451e-05 9.156877e-05
  Final line search alpha, max atom move = 0 0
  Iterations, force evaluations = 1 2

MPI task timing breakdown:
Section |  min time  |  avg time  |  max time  |%varavg| %total
---------------------------------------------------------------
Pair    | 0.00012088 | 0.00012088 | 0.00012088 |   0.0 | 31.19
Neigh   | 0          | 0          | 0          |   0.0 |  0.00
Comm    | 2.27e-06   | 2.27e-06   | 2.27e-06   |   0.0 |  0.59
Output  | 0          | 0          | 0          |   0.0 |  0.00
Modify  | 0          | 0          | 0          |   0.0 |  0.00
Other   |            | 0.0002644  |            |       | 68.22

Nlocal:             31 ave          31 max          31 min
Histogram: 1 0 0 0 0 0 0 0 0 0
Nghost:             81 ave          81 max          81 min
Histogram: 1 0 0 0 0 0 0 0 0 0
Neighs:              0 ave           0 max           0 min
Histogram: 1 0 0 0 0 0 0 0 0 0
FullNghs:          534 ave         534 max         534 min
Histogram: 1 0 0 0 0 0 0 0 0 0

Total # of neighbors = 534
Ave neighs/atom = 17.225806
Neighbor list builds = 0
Dangerous builds = 0

next nr
jump ${simname}.in loopmin
jump Tersoff.in loopmin

# Minimize the with cg + box/relax
  fix             frb all box/relax tri 0.0 couple none
  min_style       cg
  min_modify      line quadratic
  minimize        0.0 1.0e-3 10000 10000
WARNING: Energy due to 6 extra global DOFs will be included in minimizer energies
 (src/min.cpp:225)
Per MPI rank memory allocation (min/avg/max) = 4.202 | 4.202 | 4.202 Mbytes
   Step          Temp          PotEng           Lx             Ly             Lz            Pxx            Pyy            Pzz            Fmax          Fnorm     
       319  7.241994271638603e-09   -246.8034446933585    10.03753479657278    8.692762319981036    49.91257038616108 -0.05689390727621838 -0.06216583051400217 -5.88827243668746e-06 9.156876955263016e-05 0.0002602511979656223
       320  7.241994271638603e-09   -246.8034446934265    10.03753321893185    8.692760827101013    49.91257038534862  0.05495544800495703  0.05798428973238589 -5.87817593839168e-06 9.739641532835464e-05 0.0002569677859710636
Loop time of 0.000510308 on 1 procs for 1 steps with 31 atoms

0.0% CPU use with 1 MPI tasks x no OpenMP threads

Minimization stats:
  Stopping criterion = force tolerance
  Energy initial, next-to-last, final = 
     -246.803444693359  -246.803444693359  -246.803444693426
  Force two-norm initial, final = 0.00036723844 0.00036236001
  Force max component initial, final = 0.00016898037 0.00015761395
  Final line search alpha, max atom move = 0.59178471 9.3273525e-05
  Iterations, force evaluations = 1 2

MPI task timing breakdown:
Section |  min time  |  avg time  |  max time  |%varavg| %total
---------------------------------------------------------------
Pair    | 0.00010589 | 0.00010589 | 0.00010589 |   0.0 | 20.75
Neigh   | 0          | 0          | 0          |   0.0 |  0.00
Comm    | 3.071e-06  | 3.071e-06  | 3.071e-06  |   0.0 |  0.60
Output  | 0          | 0          | 0          |   0.0 |  0.00
Modify  | 0          | 0          | 0          |   0.0 |  0.00
Other   |            | 0.0004013  |            |       | 78.65

Nlocal:             31 ave          31 max          31 min
Histogram: 1 0 0 0 0 0 0 0 0 0
Nghost:             81 ave          81 max          81 min
Histogram: 1 0 0 0 0 0 0 0 0 0
Neighs:              0 ave           0 max           0 min
Histogram: 1 0 0 0 0 0 0 0 0 0
FullNghs:          534 ave         534 max         534 min
Histogram: 1 0 0 0 0 0 0 0 0 0

Total # of neighbors = 534
Ave neighs/atom = 17.225806
Neighbor list builds = 0
Dangerous builds = 0

# Minimize the with fire
  unfix           frb
  min_style       fire
  minimize        0.0 1.0e-3 10000 10000
  Parameters for fire:
    dmax  delaystep dtgrow dtshrink alpha0 alphashrink tmax tmin   integrator   halfstepback   abcfire  
     0.1     20      1.1     0.5     0.25     0.99      10  0.02 eulerimplicit      yes          no     
Per MPI rank memory allocation (min/avg/max) = 3.077 | 3.077 | 3.077 Mbytes
   Step          Temp          PotEng           Lx             Ly             Lz            Pxx            Pyy            Pzz            Fmax          Fnorm     
       320                     0   -246.8034446934267    10.03753321893185    8.692760827101013    49.91257038534862  0.05495544125576296   0.0579842796015918 -5.882166087911685e-06 9.739641533101917e-05 0.0002569677859478662
       321  6.839488643684276e-09   -246.8034446934795    10.03753321893185    8.692760827101013    49.91257038534862  0.05426849390388713  0.05595496324079089 -5.87025291530856e-06 9.581678176751041e-05 0.0002535553733200851
Loop time of 0.000327065 on 1 procs for 1 steps with 31 atoms

0.0% CPU use with 1 MPI tasks x no OpenMP threads

Minimization stats:
  Stopping criterion = force tolerance
  Energy initial, next-to-last, final = 
     -246.803444693427  -246.803444693427   -246.80344469348
  Force two-norm initial, final = 0.00025696779 0.00025355537
  Force max component initial, final = 9.7396415e-05 9.5816782e-05
  Final line search alpha, max atom move = 0 0
  Iterations, force evaluations = 1 2

MPI task timing breakdown:
Section |  min time  |  avg time  |  max time  |%varavg| %total
---------------------------------------------------------------
Pair    | 8.5628e-05 | 8.5628e-05 | 8.5628e-05 |   0.0 | 26.18
Neigh   | 0          | 0          | 0          |   0.0 |  0.00
Comm    | 2.808e-06  | 2.808e-06  | 2.808e-06  |   0.0 |  0.86
Output  | 0          | 0          | 0          |   0.0 |  0.00
Modify  | 0          | 0          | 0          |   0.0 |  0.00
Other   |            | 0.0002386  |            |       | 72.96

Nlocal:             31 ave          31 max          31 min
Histogram: 1 0 0 0 0 0 0 0 0 0
Nghost:             81 ave          81 max          81 min
Histogram: 1 0 0 0 0 0 0 0 0 0
Neighs:              0 ave           0 max           0 min
Histogram: 1 0 0 0 0 0 0 0 0 0
FullNghs:          534 ave         534 max         534 min
Histogram: 1 0 0 0 0 0 0 0 0 0

Total # of neighbors = 534
Ave neighs/atom = 17.225806
Neighbor list builds = 0
Dangerous builds = 0

next nr
jump ${simname}.in loopmin
jump Tersoff.in loopmin

# Minimize the with cg + box/relax
  fix             frb all box/relax tri 0.0 couple none
  min_style       cg
  min_modify      line quadratic
  minimize        0.0 1.0e-3 10000 10000
WARNING: Energy due to 6 extra global DOFs will be included in minimizer energies
 (src/min.cpp:225)
Per MPI rank memory allocation (min/avg/max) = 4.202 | 4.202 | 4.202 Mbytes
   Step          Temp          PotEng           Lx             Ly             Lz            Pxx            Pyy            Pzz            Fmax          Fnorm     
       321  6.839488643684276e-09   -246.8034446934793    10.03753321893185    8.692760827101013    49.91257038534862   0.0542684940991094  0.05595496333228096 -5.870252911678887e-06 9.581678184567011e-05 0.000253555373355762
       322  6.839488643684276e-09   -246.8034446935451    10.03753473080499    8.692762177110769    49.91257038453485 -0.05430805583305746 -0.05742672945520599 -5.860205555668604e-06 8.69114769592727e-05 0.0002490942061716803
Loop time of 0.000403387 on 1 procs for 1 steps with 31 atoms

0.0% CPU use with 1 MPI tasks x no OpenMP threads

Minimization stats:
  Stopping criterion = force tolerance
  Energy initial, next-to-last, final = 
     -246.803444693479  -246.803444693479  -246.803444693545
  Force two-norm initial, final = 0.00035754438 0.00035156101
  Force max component initial, final = 0.00015209777 0.00015609843
  Final line search alpha, max atom move = 0.65747184 0.00010263032
  Iterations, force evaluations = 1 2

MPI task timing breakdown:
Section |  min time  |  avg time  |  max time  |%varavg| %total
---------------------------------------------------------------
Pair    | 0.00010191 | 0.00010191 | 0.00010191 |   0.0 | 25.26
Neigh   | 0          | 0          | 0          |   0.0 |  0.00
Comm    | 2.605e-06  | 2.605e-06  | 2.605e-06  |   0.0 |  0.65
Output  | 0          | 0          | 0          |   0.0 |  0.00
Modify  | 0          | 0          | 0          |   0.0 |  0.00
Other   |            | 0.0002989  |            |       | 74.09

Nlocal:             31 ave          31 max          31 min
Histogram: 1 0 0 0 0 0 0 0 0 0
Nghost:             81 ave          81 max          81 min
Histogram: 1 0 0 0 0 0 0 0 0 0
Neighs:              0 ave           0 max           0 min
Histogram: 1 0 0 0 0 0 0 0 0 0
FullNghs:          534 ave         534 max         534 min
Histogram: 1 0 0 0 0 0 0 0 0 0

Total # of neighbors = 534
Ave neighs/atom = 17.225806
Neighbor list builds = 0
Dangerous builds = 0

# Minimize the with fire
  unfix           frb
  min_style       fire
  minimize        0.0 1.0e-3 10000 10000
  Parameters for fire:
    dmax  delaystep dtgrow dtshrink alpha0 alphashrink tmax tmin   integrator   halfstepback   abcfire  
     0.1     20      1.1     0.5     0.25     0.99      10  0.02 eulerimplicit      yes          no     
Per MPI rank memory allocation (min/avg/max) = 3.077 | 3.077 | 3.077 Mbytes
   Step          Temp          PotEng           Lx             Ly             Lz            Pxx            Pyy            Pzz            Fmax          Fnorm     
       322                     0   -246.8034446935449    10.03753473080499    8.692762177110769    49.91257038453485 -0.05430806185194372 -0.05742673881296131 -5.864178047043744e-06 8.691147689532386e-05 0.0002490942062429375
       323  6.426781279333787e-09   -246.8034446935944    10.03753473080499    8.692762177110769    49.91257038453485 -0.05484410018645523 -0.05913736062504912 -5.85231728590102e-06 8.566439588797436e-05 0.0002458684829679723
Loop time of 0.000497145 on 1 procs for 1 steps with 31 atoms

0.0% CPU use with 1 MPI tasks x no OpenMP threads

Minimization stats:
  Stopping criterion = force tolerance
  Energy initial, next-to-last, final = 
     -246.803444693545  -246.803444693545  -246.803444693594
  Force two-norm initial, final = 0.00024909421 0.00024586848
  Force max component initial, final = 8.6911477e-05 8.5664396e-05
  Final line search alpha, max atom move = 0 0
  Iterations, force evaluations = 1 2

MPI task timing breakdown:
Section |  min time  |  avg time  |  max time  |%varavg| %total
---------------------------------------------------------------
Pair    | 0.00014846 | 0.00014846 | 0.00014846 |   0.0 | 29.86
Neigh   | 0          | 0          | 0          |   0.0 |  0.00
Comm    | 2.52e-06   | 2.52e-06   | 2.52e-06   |   0.0 |  0.51
Output  | 0          | 0          | 0          |   0.0 |  0.00
Modify  | 0          | 0          | 0          |   0.0 |  0.00
Other   |            | 0.0003462  |            |       | 69.63

Nlocal:             31 ave          31 max          31 min
Histogram: 1 0 0 0 0 0 0 0 0 0
Nghost:             81 ave          81 max          81 min
Histogram: 1 0 0 0 0 0 0 0 0 0
Neighs:              0 ave           0 max           0 min
Histogram: 1 0 0 0 0 0 0 0 0 0
FullNghs:          534 ave         534 max         534 min
Histogram: 1 0 0 0 0 0 0 0 0 0

Total # of neighbors = 534
Ave neighs/atom = 17.225806
Neighbor list builds = 0
Dangerous builds = 0

next nr
jump ${simname}.in loopmin
jump Tersoff.in loopmin

# Minimize the with cg + box/relax
  fix             frb all box/relax tri 0.0 couple none
  min_style       cg
  min_modify      line quadratic
  minimize        0.0 1.0e-3 10000 10000
WARNING: Energy due to 6 extra global DOFs will be included in minimizer energies
 (src/min.cpp:225)
Per MPI rank memory allocation (min/avg/max) = 4.202 | 4.202 | 4.202 Mbytes
   Step          Temp          PotEng           Lx             Ly             Lz            Pxx            Pyy            Pzz            Fmax          Fnorm     
       323  6.426781279333787e-09   -246.8034446935945    10.03753473080499    8.692762177110769    49.91257038453485 -0.05484409993127532 -0.05913736063811912 -5.852317281992143e-06 8.566439587109898e-05 0.0002458684829639042
       324  6.426781279333787e-09   -246.8034446936557    10.03753323054485    8.692760776139103    49.91257038373824  0.05148912593566543  0.05368949959242618 -5.842445464803823e-06  9.1233647582456e-05 0.0002436077904652605
Loop time of 0.000332629 on 1 procs for 1 steps with 31 atoms

0.0% CPU use with 1 MPI tasks x no OpenMP threads

Minimization stats:
  Stopping criterion = force tolerance
  Energy initial, next-to-last, final = 
     -246.803444693595  -246.803444693595  -246.803444693656
  Force two-norm initial, final = 0.00034971507 0.00034084185
  Force max component initial, final = 0.00016074832 0.00014593977
  Final line search alpha, max atom move = 0.62209049 9.0787743e-05
  Iterations, force evaluations = 1 2

MPI task timing breakdown:
Section |  min time  |  avg time  |  max time  |%varavg| %total
---------------------------------------------------------------
Pair    | 7.6746e-05 | 7.6746e-05 | 7.6746e-05 |   0.0 | 23.07
Neigh   | 0          | 0          | 0          |   0.0 |  0.00
Comm    | 2.139e-06  | 2.139e-06  | 2.139e-06  |   0.0 |  0.64
Output  | 0          | 0          | 0          |   0.0 |  0.00
Modify  | 0          | 0          | 0          |   0.0 |  0.00
Other   |            | 0.0002537  |            |       | 76.28

Nlocal:             31 ave          31 max          31 min
Histogram: 1 0 0 0 0 0 0 0 0 0
Nghost:             81 ave          81 max          81 min
Histogram: 1 0 0 0 0 0 0 0 0 0
Neighs:              0 ave           0 max           0 min
Histogram: 1 0 0 0 0 0 0 0 0 0
FullNghs:          534 ave         534 max         534 min
Histogram: 1 0 0 0 0 0 0 0 0 0

Total # of neighbors = 534
Ave neighs/atom = 17.225806
Neighbor list builds = 0
Dangerous builds = 0

# Minimize the with fire
  unfix           frb
  min_style       fire
  minimize        0.0 1.0e-3 10000 10000
  Parameters for fire:
    dmax  delaystep dtgrow dtshrink alpha0 alphashrink tmax tmin   integrator   halfstepback   abcfire  
     0.1     20      1.1     0.5     0.25     0.99      10  0.02 eulerimplicit      yes          no     
Per MPI rank memory allocation (min/avg/max) = 3.077 | 3.077 | 3.077 Mbytes
   Step          Temp          PotEng           Lx             Ly             Lz            Pxx            Pyy            Pzz            Fmax          Fnorm     
       324                     0   -246.8034446936557    10.03753323054485    8.692760776139103    49.91257038373824    0.051489120486278  0.05368949082647737 -5.846400494306216e-06 9.123364755136976e-05 0.0002436077904685941
       325  6.146793353747044e-09   -246.8034446937028    10.03753323054485    8.692760776139103    49.91257038373824  0.05083027157153541  0.05179862654507566 -5.834591257618562e-06 8.978593561437265e-05 0.000240869077553738
Loop time of 0.000508821 on 1 procs for 1 steps with 31 atoms

0.0% CPU use with 1 MPI tasks x no OpenMP threads

Minimization stats:
  Stopping criterion = force tolerance
  Energy initial, next-to-last, final = 
     -246.803444693656  -246.803444693656  -246.803444693703
  Force two-norm initial, final = 0.00024360779 0.00024086908
  Force max component initial, final = 9.1233648e-05 8.9785936e-05
  Final line search alpha, max atom move = 0 0
  Iterations, force evaluations = 1 2

MPI task timing breakdown:
Section |  min time  |  avg time  |  max time  |%varavg| %total
---------------------------------------------------------------
Pair    | 9.3355e-05 | 9.3355e-05 | 9.3355e-05 |   0.0 | 18.35
Neigh   | 0          | 0          | 0          |   0.0 |  0.00
Comm    | 2.516e-06  | 2.516e-06  | 2.516e-06  |   0.0 |  0.49
Output  | 0          | 0          | 0          |   0.0 |  0.00
Modify  | 0          | 0          | 0          |   0.0 |  0.00
Other   |            | 0.0004129  |            |       | 81.16

Nlocal:             31 ave          31 max          31 min
Histogram: 1 0 0 0 0 0 0 0 0 0
Nghost:             81 ave          81 max          81 min
Histogram: 1 0 0 0 0 0 0 0 0 0
Neighs:              0 ave           0 max           0 min
Histogram: 1 0 0 0 0 0 0 0 0 0
FullNghs:          534 ave         534 max         534 min
Histogram: 1 0 0 0 0 0 0 0 0 0

Total # of neighbors = 534
Ave neighs/atom = 17.225806
Neighbor list builds = 0
Dangerous builds = 0

next nr
jump ${simname}.in loopmin
jump Tersoff.in loopmin

# Minimize the with cg + box/relax
  fix             frb all box/relax tri 0.0 couple none
  min_style       cg
  min_modify      line quadratic
  minimize        0.0 1.0e-3 10000 10000
WARNING: Energy due to 6 extra global DOFs will be included in minimizer energies
 (src/min.cpp:225)
Per MPI rank memory allocation (min/avg/max) = 4.202 | 4.202 | 4.202 Mbytes
   Step          Temp          PotEng           Lx             Ly             Lz            Pxx            Pyy            Pzz            Fmax          Fnorm     
       325  6.146793353747044e-09    -246.803444693703    10.03753323054485    8.692760776139103    49.91257038373824  0.05083027131983292  0.05179862666009175 -5.834591248484552e-06 8.978593560371451e-05 0.0002408690774985312
       326  6.146793353747044e-09   -246.8034446937618     10.0375346741706    8.692762050173469    49.91257038291369 -0.05282708694753061 -0.05525247181217832 -5.824436132036235e-06 8.137453705536757e-05 0.0002371665361380205
Loop time of 0.000400022 on 1 procs for 1 steps with 31 atoms

0.0% CPU use with 1 MPI tasks x no OpenMP threads

Minimization stats:
  Stopping criterion = force tolerance
  Energy initial, next-to-last, final = 
     -246.803444693703  -246.803444693703  -246.803444693762
  Force two-norm initial, final = 0.00033662921 0.00033776139
  Force max component initial, final = 0.00014079994 0.00015018831
  Final line search alpha, max atom move = 0.71022756 0.00010666788
  Iterations, force evaluations = 1 2

MPI task timing breakdown:
Section |  min time  |  avg time  |  max time  |%varavg| %total
---------------------------------------------------------------
Pair    | 8.9736e-05 | 8.9736e-05 | 8.9736e-05 |   0.0 | 22.43
Neigh   | 0          | 0          | 0          |   0.0 |  0.00
Comm    | 3.858e-06  | 3.858e-06  | 3.858e-06  |   0.0 |  0.96
Output  | 0          | 0          | 0          |   0.0 |  0.00
Modify  | 0          | 0          | 0          |   0.0 |  0.00
Other   |            | 0.0003064  |            |       | 76.60

Nlocal:             31 ave          31 max          31 min
Histogram: 1 0 0 0 0 0 0 0 0 0
Nghost:             81 ave          81 max          81 min
Histogram: 1 0 0 0 0 0 0 0 0 0
Neighs:              0 ave           0 max           0 min
Histogram: 1 0 0 0 0 0 0 0 0 0
FullNghs:          534 ave         534 max         534 min
Histogram: 1 0 0 0 0 0 0 0 0 0

Total # of neighbors = 534
Ave neighs/atom = 17.225806
Neighbor list builds = 0
Dangerous builds = 0

# Minimize the with fire
  unfix           frb
  min_style       fire
  minimize        0.0 1.0e-3 10000 10000
  Parameters for fire:
    dmax  delaystep dtgrow dtshrink alpha0 alphashrink tmax tmin   integrator   halfstepback   abcfire  
     0.1     20      1.1     0.5     0.25     0.99      10  0.02 eulerimplicit      yes          no     
Per MPI rank memory allocation (min/avg/max) = 3.077 | 3.077 | 3.077 Mbytes
   Step          Temp          PotEng           Lx             Ly             Lz            Pxx            Pyy            Pzz            Fmax          Fnorm     
       326                     0   -246.8034446937621     10.0375346741706    8.692762050173469    49.91257038291369 -0.05282709229459575 -0.05525248035502362 -5.828373968353024e-06 8.137453707135478e-05 0.000237166536110959
       327  5.826034993449323e-09   -246.8034446938074     10.0375346741706    8.692762050173469    49.91257038291369  -0.0533246000866277 -0.05685615786911814 -5.816616799432908e-06 8.024264420658511e-05 0.000234522581302435
Loop time of 0.000368155 on 1 procs for 1 steps with 31 atoms

0.0% CPU use with 1 MPI tasks x no OpenMP threads

Minimization stats:
  Stopping criterion = force tolerance
  Energy initial, next-to-last, final = 
     -246.803444693762  -246.803444693762  -246.803444693807
  Force two-norm initial, final = 0.00023716654 0.00023452258
  Force max component initial, final = 8.1374537e-05 8.0242644e-05
  Final line search alpha, max atom move = 0 0
  Iterations, force evaluations = 1 2

MPI task timing breakdown:
Section |  min time  |  avg time  |  max time  |%varavg| %total
---------------------------------------------------------------
Pair    | 0.00011901 | 0.00011901 | 0.00011901 |   0.0 | 32.33
Neigh   | 0          | 0          | 0          |   0.0 |  0.00
Comm    | 3.147e-06  | 3.147e-06  | 3.147e-06  |   0.0 |  0.85
Output  | 0          | 0          | 0          |   0.0 |  0.00
Modify  | 0          | 0          | 0          |   0.0 |  0.00
Other   |            | 0.000246   |            |       | 66.82

Nlocal:             31 ave          31 max          31 min
Histogram: 1 0 0 0 0 0 0 0 0 0
Nghost:             81 ave          81 max          81 min
Histogram: 1 0 0 0 0 0 0 0 0 0
Neighs:              0 ave           0 max           0 min
Histogram: 1 0 0 0 0 0 0 0 0 0
FullNghs:          534 ave         534 max         534 min
Histogram: 1 0 0 0 0 0 0 0 0 0

Total # of neighbors = 534
Ave neighs/atom = 17.225806
Neighbor list builds = 0
Dangerous builds = 0

next nr
jump ${simname}.in loopmin
jump Tersoff.in loopmin

# Minimize the with cg + box/relax
  fix             frb all box/relax tri 0.0 couple none
  min_style       cg
  min_modify      line quadratic
  minimize        0.0 1.0e-3 10000 10000
WARNING: Energy due to 6 extra global DOFs will be included in minimizer energies
 (src/min.cpp:225)
Per MPI rank memory allocation (min/avg/max) = 4.202 | 4.202 | 4.202 Mbytes
   Step          Temp          PotEng           Lx             Ly             Lz            Pxx            Pyy            Pzz            Fmax          Fnorm     
       327  5.826034993449323e-09   -246.8034446938073     10.0375346741706    8.692762050173469    49.91257038291369 -0.05332460034798148 -0.05685615786519715 -5.816616793250503e-06 8.024264422523686e-05 0.0002345225812982658
       328  5.826034993449323e-09   -246.8034446938627    10.03753323614452    8.692760722328371    49.91257038213317   0.0485962709855087  0.05016012323880019 -5.806970301926843e-06 8.562710625614756e-05 0.0002328078913230343
Loop time of 0.000491932 on 1 procs for 1 steps with 31 atoms

0.0% CPU use with 1 MPI tasks x no OpenMP threads

Minimization stats:
  Stopping criterion = force tolerance
  Energy initial, next-to-last, final = 
     -246.803444693807  -246.803444693807  -246.803444693863
  Force two-norm initial, final = 0.00033627472 0.00032322626
  Force max component initial, final = 0.0001545475 0.00013634615
  Final line search alpha, max atom move = 0.64705024 8.8222812e-05
  Iterations, force evaluations = 1 2

MPI task timing breakdown:
Section |  min time  |  avg time  |  max time  |%varavg| %total
---------------------------------------------------------------
Pair    | 8.0157e-05 | 8.0157e-05 | 8.0157e-05 |   0.0 | 16.29
Neigh   | 0          | 0          | 0          |   0.0 |  0.00
Comm    | 2.267e-06  | 2.267e-06  | 2.267e-06  |   0.0 |  0.46
Output  | 0          | 0          | 0          |   0.0 |  0.00
Modify  | 0          | 0          | 0          |   0.0 |  0.00
Other   |            | 0.0004095  |            |       | 83.24

Nlocal:             31 ave          31 max          31 min
Histogram: 1 0 0 0 0 0 0 0 0 0
Nghost:             81 ave          81 max          81 min
Histogram: 1 0 0 0 0 0 0 0 0 0
Neighs:              0 ave           0 max           0 min
Histogram: 1 0 0 0 0 0 0 0 0 0
FullNghs:          534 ave         534 max         534 min
Histogram: 1 0 0 0 0 0 0 0 0 0

Total # of neighbors = 534
Ave neighs/atom = 17.225806
Neighbor list builds = 0
Dangerous builds = 0

# Minimize the with fire
  unfix           frb
  min_style       fire
  minimize        0.0 1.0e-3 10000 10000
  Parameters for fire:
    dmax  delaystep dtgrow dtshrink alpha0 alphashrink tmax tmin   integrator   halfstepback   abcfire  
     0.1     20      1.1     0.5     0.25     0.99      10  0.02 eulerimplicit      yes          no     
Per MPI rank memory allocation (min/avg/max) = 3.077 | 3.077 | 3.077 Mbytes
   Step          Temp          PotEng           Lx             Ly             Lz            Pxx            Pyy            Pzz            Fmax          Fnorm     
       328                     0   -246.8034446938627    10.03753323614452    8.692760722328371    49.91257038213317  0.04859626611487727  0.05016011551214411 -5.81089078189809e-06 8.562710631832005e-05 0.000232807891301517
       329  5.613861084456508e-09   -246.8034446939061    10.03753323614452    8.692760722328371    49.91257038213317    0.047975770092905  0.04839053943022741 -5.799183866884825e-06 8.429946079857586e-05 0.0002304999410711177
Loop time of 0.000455071 on 1 procs for 1 steps with 31 atoms

9.0% CPU use with 1 MPI tasks x no OpenMP threads

Minimization stats:
  Stopping criterion = force tolerance
  Energy initial, next-to-last, final = 
     -246.803444693863  -246.803444693863  -246.803444693906
  Force two-norm initial, final = 0.00023280789 0.00023049994
  Force max component initial, final = 8.5627106e-05 8.4299461e-05
  Final line search alpha, max atom move = 0 0
  Iterations, force evaluations = 1 2

MPI task timing breakdown:
Section |  min time  |  avg time  |  max time  |%varavg| %total
---------------------------------------------------------------
Pair    | 8.1132e-05 | 8.1132e-05 | 8.1132e-05 |   0.0 | 17.83
Neigh   | 0          | 0          | 0          |   0.0 |  0.00
Comm    | 5.633e-06  | 5.633e-06  | 5.633e-06  |   0.0 |  1.24
Output  | 0          | 0          | 0          |   0.0 |  0.00
Modify  | 0          | 0          | 0          |   0.0 |  0.00
Other   |            | 0.0003683  |            |       | 80.93

Nlocal:             31 ave          31 max          31 min
Histogram: 1 0 0 0 0 0 0 0 0 0
Nghost:             81 ave          81 max          81 min
Histogram: 1 0 0 0 0 0 0 0 0 0
Neighs:              0 ave           0 max           0 min
Histogram: 1 0 0 0 0 0 0 0 0 0
FullNghs:          534 ave         534 max         534 min
Histogram: 1 0 0 0 0 0 0 0 0 0

Total # of neighbors = 534
Ave neighs/atom = 17.225806
Neighbor list builds = 0
Dangerous builds = 0

next nr
jump ${simname}.in loopmin
jump Tersoff.in loopmin

# Minimize the with cg + box/relax
  fix             frb all box/relax tri 0.0 couple none
  min_style       cg
  min_modify      line quadratic
  minimize        0.0 1.0e-3 10000 10000
WARNING: Energy due to 6 extra global DOFs will be included in minimizer energies
 (src/min.cpp:225)
Per MPI rank memory allocation (min/avg/max) = 4.202 | 4.202 | 4.202 Mbytes
   Step          Temp          PotEng           Lx             Ly             Lz            Pxx            Pyy            Pzz            Fmax          Fnorm     
       329  5.613861084456508e-09    -246.803444693906    10.03753323614452    8.692760722328371    49.91257038213317   0.0479757703750139  0.04839053916752022 -5.799183877614294e-06 8.429946081456308e-05 0.0002304999409796045
       330  5.613861084456508e-09   -246.8034446939602    10.03753462423941    8.692761934846853    49.91257038129825 -0.05166230949191702 -0.05352441719339957 -5.788926621924356e-06 7.630375349609864e-05 0.0002273561461343258
Loop time of 0.000563951 on 1 procs for 1 steps with 31 atoms

10.3% CPU use with 1 MPI tasks x no OpenMP threads

Minimization stats:
  Stopping criterion = force tolerance
  Energy initial, next-to-last, final = 
     -246.803444693906  -246.803444693906   -246.80344469396
  Force two-norm initial, final = 0.00031946149 0.00032662718
  Force max component initial, final = 0.00013153602 0.00014549108
  Final line search alpha, max atom move = 0.76024803 0.00011060931
  Iterations, force evaluations = 1 2

MPI task timing breakdown:
Section |  min time  |  avg time  |  max time  |%varavg| %total
---------------------------------------------------------------
Pair    | 9.3023e-05 | 9.3023e-05 | 9.3023e-05 |   0.0 | 16.49
Neigh   | 0          | 0          | 0          |   0.0 |  0.00
Comm    | 2.846e-06  | 2.846e-06  | 2.846e-06  |   0.0 |  0.50
Output  | 0          | 0          | 0          |   0.0 |  0.00
Modify  | 0          | 0          | 0          |   0.0 |  0.00
Other   |            | 0.0004681  |            |       | 83.00

Nlocal:             31 ave          31 max          31 min
Histogram: 1 0 0 0 0 0 0 0 0 0
Nghost:             81 ave          81 max          81 min
Histogram: 1 0 0 0 0 0 0 0 0 0
Neighs:              0 ave           0 max           0 min
Histogram: 1 0 0 0 0 0 0 0 0 0
FullNghs:          534 ave         534 max         534 min
Histogram: 1 0 0 0 0 0 0 0 0 0

Total # of neighbors = 534
Ave neighs/atom = 17.225806
Neighbor list builds = 0
Dangerous builds = 0

# Minimize the with fire
  unfix           frb
  min_style       fire
  minimize        0.0 1.0e-3 10000 10000
  Parameters for fire:
    dmax  delaystep dtgrow dtshrink alpha0 alphashrink tmax tmin   integrator   halfstepback   abcfire  
     0.1     20      1.1     0.5     0.25     0.99      10  0.02 eulerimplicit      yes          no     
Per MPI rank memory allocation (min/avg/max) = 3.077 | 3.077 | 3.077 Mbytes
   Step          Temp          PotEng           Lx             Ly             Lz            Pxx            Pyy            Pzz            Fmax          Fnorm     
       330                     0   -246.8034446939604    10.03753462423941    8.692761934846853    49.91257038129825 -0.05166231412130021 -0.05352442478752604 -5.792830299505602e-06 7.630375341882711e-05 0.0002273561461074121
       331  5.354016009128199e-09   -246.8034446940016    10.03753462423941    8.692761934846853    49.91257038129825 -0.05211570189119057  -0.0550316765050237 -5.781175146414379e-06 7.52763466769224e-05 0.0002250885019875749
Loop time of 0.000350195 on 1 procs for 1 steps with 31 atoms

12.8% CPU use with 1 MPI tasks x no OpenMP threads

Minimization stats:
  Stopping criterion = force tolerance
  Energy initial, next-to-last, final = 
      -246.80344469396   -246.80344469396  -246.803444694002
  Force two-norm initial, final = 0.00022735615 0.0002250885
  Force max component initial, final = 7.6303753e-05 7.5276347e-05
  Final line search alpha, max atom move = 0 0
  Iterations, force evaluations = 1 2

MPI task timing breakdown:
Section |  min time  |  avg time  |  max time  |%varavg| %total
---------------------------------------------------------------
Pair    | 8.2312e-05 | 8.2312e-05 | 8.2312e-05 |   0.0 | 23.50
Neigh   | 0          | 0          | 0          |   0.0 |  0.00
Comm    | 2.139e-06  | 2.139e-06  | 2.139e-06  |   0.0 |  0.61
Output  | 0          | 0          | 0          |   0.0 |  0.00
Modify  | 0          | 0          | 0          |   0.0 |  0.00
Other   |            | 0.0002657  |            |       | 75.88

Nlocal:             31 ave          31 max          31 min
Histogram: 1 0 0 0 0 0 0 0 0 0
Nghost:             81 ave          81 max          81 min
Histogram: 1 0 0 0 0 0 0 0 0 0
Neighs:              0 ave           0 max           0 min
Histogram: 1 0 0 0 0 0 0 0 0 0
FullNghs:          534 ave         534 max         534 min
Histogram: 1 0 0 0 0 0 0 0 0 0

Total # of neighbors = 534
Ave neighs/atom = 17.225806
Neighbor list builds = 0
Dangerous builds = 0

next nr
jump ${simname}.in loopmin
jump Tersoff.in loopmin

# Minimize the with cg + box/relax
  fix             frb all box/relax tri 0.0 couple none
  min_style       cg
  min_modify      line quadratic
  minimize        0.0 1.0e-3 10000 10000
WARNING: Energy due to 6 extra global DOFs will be included in minimizer energies
 (src/min.cpp:225)
Per MPI rank memory allocation (min/avg/max) = 4.202 | 4.202 | 4.202 Mbytes
   Step          Temp          PotEng           Lx             Ly             Lz            Pxx            Pyy            Pzz            Fmax          Fnorm     
       331  5.354016009128199e-09   -246.8034446940016    10.03753462423941    8.692761934846853    49.91257038129825 -0.05211570220278019 -0.05503167641614765 -5.781175145217784e-06 7.527634665205341e-05 0.0002250885019173451
       332  5.354016009128199e-09   -246.8034446940534    10.03753323867343    8.692760667772466    49.91257038053345  0.04610065973244169  0.04716499372613742 -5.771747785149744e-06 8.051560129285207e-05 0.0002236578774910938
Loop time of 0.000343085 on 1 procs for 1 steps with 31 atoms

13.1% CPU use with 1 MPI tasks x no OpenMP threads

Minimization stats:
  Stopping criterion = force tolerance
  Energy initial, next-to-last, final = 
     -246.803444694002  -246.803444694002  -246.803444694053
  Force two-norm initial, final = 0.00032532998 0.00030822555
  Force max component initial, final = 0.00014958816 0.00012820474
  Final line search alpha, max atom move = 0.66850211 8.5705138e-05
  Iterations, force evaluations = 1 2

MPI task timing breakdown:
Section |  min time  |  avg time  |  max time  |%varavg| %total
---------------------------------------------------------------
Pair    | 9.9703e-05 | 9.9703e-05 | 9.9703e-05 |   0.0 | 29.06
Neigh   | 0          | 0          | 0          |   0.0 |  0.00
Comm    | 3.04e-06   | 3.04e-06   | 3.04e-06   |   0.0 |  0.89
Output  | 0          | 0          | 0          |   0.0 |  0.00
Modify  | 0          | 0          | 0          |   0.0 |  0.00
Other   |            | 0.0002403  |            |       | 70.05

Nlocal:             31 ave          31 max          31 min
Histogram: 1 0 0 0 0 0 0 0 0 0
Nghost:             81 ave          81 max          81 min
Histogram: 1 0 0 0 0 0 0 0 0 0
Neighs:              0 ave           0 max           0 min
Histogram: 1 0 0 0 0 0 0 0 0 0
FullNghs:          534 ave         534 max         534 min
Histogram: 1 0 0 0 0 0 0 0 0 0

Total # of neighbors = 534
Ave neighs/atom = 17.225806
Neighbor list builds = 0
Dangerous builds = 0

# Minimize the with fire
  unfix           frb
  min_style       fire
  minimize        0.0 1.0e-3 10000 10000
  Parameters for fire:
    dmax  delaystep dtgrow dtshrink alpha0 alphashrink tmax tmin   integrator   halfstepback   abcfire  
     0.1     20      1.1     0.5     0.25     0.99      10  0.02 eulerimplicit      yes          no     
Per MPI rank memory allocation (min/avg/max) = 3.077 | 3.077 | 3.077 Mbytes
   Step          Temp          PotEng           Lx             Ly             Lz            Pxx            Pyy            Pzz            Fmax          Fnorm     
       332                     0   -246.8034446940532    10.03753323867343    8.692760667772466    49.91257038053345  0.04610065551709153  0.04716498679881927 -5.775634214797868e-06 8.051560130883928e-05 0.0002236578775806746
       333  5.181251409268564e-09   -246.8034446940933    10.03753323867343    8.692760667772466    49.91257038053345  0.04552257807419383  0.04550372439546591 -5.764028098208337e-06 7.92952471444508e-05 0.0002216411644662154
Loop time of 0.000401651 on 1 procs for 1 steps with 31 atoms

11.7% CPU use with 1 MPI tasks x no OpenMP threads

Minimization stats:
  Stopping criterion = force tolerance
  Energy initial, next-to-last, final = 
     -246.803444694053  -246.803444694053  -246.803444694093
  Force two-norm initial, final = 0.00022365788 0.00022164116
  Force max component initial, final = 8.0515601e-05 7.9295247e-05
  Final line search alpha, max atom move = 0 0
  Iterations, force evaluations = 1 2

MPI task timing breakdown:
Section |  min time  |  avg time  |  max time  |%varavg| %total
---------------------------------------------------------------
Pair    | 0.00010778 | 0.00010778 | 0.00010778 |   0.0 | 26.84
Neigh   | 0          | 0          | 0          |   0.0 |  0.00
Comm    | 3.003e-06  | 3.003e-06  | 3.003e-06  |   0.0 |  0.75
Output  | 0          | 0          | 0          |   0.0 |  0.00
Modify  | 0          | 0          | 0          |   0.0 |  0.00
Other   |            | 0.0002909  |            |       | 72.42

Nlocal:             31 ave          31 max          31 min
Histogram: 1 0 0 0 0 0 0 0 0 0
Nghost:             81 ave          81 max          81 min
Histogram: 1 0 0 0 0 0 0 0 0 0
Neighs:              0 ave           0 max           0 min
Histogram: 1 0 0 0 0 0 0 0 0 0
FullNghs:          534 ave         534 max         534 min
Histogram: 1 0 0 0 0 0 0 0 0 0

Total # of neighbors = 534
Ave neighs/atom = 17.225806
Neighbor list builds = 0
Dangerous builds = 0

next nr
jump ${simname}.in loopmin
jump Tersoff.in loopmin

# Minimize the with cg + box/relax
  fix             frb all box/relax tri 0.0 couple none
  min_style       cg
  min_modify      line quadratic
  minimize        0.0 1.0e-3 10000 10000
WARNING: Energy due to 6 extra global DOFs will be included in minimizer energies
 (src/min.cpp:225)
Per MPI rank memory allocation (min/avg/max) = 4.202 | 4.202 | 4.202 Mbytes
   Step          Temp          PotEng           Lx             Ly             Lz            Pxx            Pyy            Pzz            Fmax          Fnorm     
       333  5.181251409268564e-09   -246.8034446940933    10.03753323867343    8.692760667772466    49.91257038053345  0.04552257800929214  0.04550372422947679 -5.764028097570152e-06 7.929524709737734e-05 0.0002216411643933695
[...]
FullNghs:          534 ave         534 max         534 min
Histogram: 1 0 0 0 0 0 0 0 0 0

Total # of neighbors = 534
Ave neighs/atom = 17.225806
Neighbor list builds = 0
Dangerous builds = 0

# Minimize the with fire
  unfix           frb
  min_style       fire
  minimize        0.0 1.0e-3 10000 10000
  Parameters for fire:
    dmax  delaystep dtgrow dtshrink alpha0 alphashrink tmax tmin   integrator   halfstepback   abcfire  
     0.1     20      1.1     0.5     0.25     0.99      10  0.02 eulerimplicit      yes          no     
Per MPI rank memory allocation (min/avg/max) = 3.077 | 3.077 | 3.077 Mbytes
   Step          Temp          PotEng           Lx             Ly             Lz            Pxx            Pyy            Pzz            Fmax          Fnorm     
       498                     0   -246.8034446974018    10.03753411782753     8.69276004627651    49.91257031918943 -0.02889636703946123 -0.02818332392085855 -4.503793003026705e-06 5.579893051490669e-05 0.0001065510867055541
       499  1.175931527559261e-09   -246.8034446974108    10.03753411782753     8.69276004627651    49.91257031918943 -0.02878038805811744 -0.02835185117427074 -4.495373135592443e-06 5.574003288531364e-05 0.0001062600337997377
Loop time of 0.000308345 on 1 procs for 1 steps with 31 atoms

13.3% CPU use with 1 MPI tasks x no OpenMP threads

Minimization stats:
  Stopping criterion = force tolerance
  Energy initial, next-to-last, final = 
     -246.803444697402  -246.803444697402  -246.803444697411
  Force two-norm initial, final = 0.00010655109 0.00010626003
  Force max component initial, final = 5.5798931e-05 5.5740033e-05
  Final line search alpha, max atom move = 0 0
  Iterations, force evaluations = 1 2

MPI task timing breakdown:
Section |  min time  |  avg time  |  max time  |%varavg| %total
---------------------------------------------------------------
Pair    | 8.2178e-05 | 8.2178e-05 | 8.2178e-05 |   0.0 | 26.65
Neigh   | 0          | 0          | 0          |   0.0 |  0.00
Comm    | 2.348e-06  | 2.348e-06  | 2.348e-06  |   0.0 |  0.76
Output  | 0          | 0          | 0          |   0.0 |  0.00
Modify  | 0          | 0          | 0          |   0.0 |  0.00
Other   |            | 0.0002238  |            |       | 72.59

Nlocal:             31 ave          31 max          31 min
Histogram: 1 0 0 0 0 0 0 0 0 0
Nghost:             81 ave          81 max          81 min
Histogram: 1 0 0 0 0 0 0 0 0 0
Neighs:              0 ave           0 max           0 min
Histogram: 1 0 0 0 0 0 0 0 0 0
FullNghs:          534 ave         534 max         534 min
Histogram: 1 0 0 0 0 0 0 0 0 0

Total # of neighbors = 534
Ave neighs/atom = 17.225806
Neighbor list builds = 0
Dangerous builds = 0

next nr
jump ${simname}.in loopmin
jump Tersoff.in loopmin

# Minimize the with cg + box/relax
  fix             frb all box/relax tri 0.0 couple none
  min_style       cg
  min_modify      line quadratic
  minimize        0.0 1.0e-3 10000 10000
WARNING: Energy due to 6 extra global DOFs will be included in minimizer energies
 (src/min.cpp:225)
Per MPI rank memory allocation (min/avg/max) = 4.202 | 4.202 | 4.202 Mbytes
   Step          Temp          PotEng           Lx             Ly             Lz            Pxx            Pyy            Pzz            Fmax          Fnorm     
       499  1.175931527559261e-09   -246.8034446974108    10.03753411782753     8.69276004627651    49.91257031918943  -0.0287803880907814 -0.02835185115074472 -4.495373137746314e-06 5.57400328629134e-05 0.0001062600337960254
       500  1.175931527559261e-09   -246.8034446974231    10.03753344584573    8.692759472988389    49.91257031866717  0.01914863167116891  0.01860840518493214 -4.489394916313884e-06 5.567725452483418e-05 0.0001053445714024813
Loop time of 0.000739007 on 1 procs for 1 steps with 31 atoms

9.6% CPU use with 1 MPI tasks x no OpenMP threads

Minimization stats:
  Stopping criterion = force tolerance
  Energy initial, next-to-last, final = 
     -246.803444697411  -246.803444697411  -246.803444697423
  Force two-norm initial, final = 0.00016657603 0.0001360618
  Force max component initial, final = 7.8231373e-05 5.5677255e-05
  Final line search alpha, max atom move = 1 5.5677255e-05
  Iterations, force evaluations = 1 2

MPI task timing breakdown:
Section |  min time  |  avg time  |  max time  |%varavg| %total
---------------------------------------------------------------
Pair    | 0.00015299 | 0.00015299 | 0.00015299 |   0.0 | 20.70
Neigh   | 0          | 0          | 0          |   0.0 |  0.00
Comm    | 4.28e-06   | 4.28e-06   | 4.28e-06   |   0.0 |  0.58
Output  | 0          | 0          | 0          |   0.0 |  0.00
Modify  | 0          | 0          | 0          |   0.0 |  0.00
Other   |            | 0.0005817  |            |       | 78.72

Nlocal:             31 ave          31 max          31 min
Histogram: 1 0 0 0 0 0 0 0 0 0
Nghost:             81 ave          81 max          81 min
Histogram: 1 0 0 0 0 0 0 0 0 0
Neighs:              0 ave           0 max           0 min
Histogram: 1 0 0 0 0 0 0 0 0 0
FullNghs:          534 ave         534 max         534 min
Histogram: 1 0 0 0 0 0 0 0 0 0

Total # of neighbors = 534
Ave neighs/atom = 17.225806
Neighbor list builds = 0
Dangerous builds = 0

# Minimize the with fire
  unfix           frb
  min_style       fire
  minimize        0.0 1.0e-3 10000 10000
  Parameters for fire:
    dmax  delaystep dtgrow dtshrink alpha0 alphashrink tmax tmin   integrator   halfstepback   abcfire  
     0.1     20      1.1     0.5     0.25     0.99      10  0.02 eulerimplicit      yes          no     
Per MPI rank memory allocation (min/avg/max) = 3.077 | 3.077 | 3.077 Mbytes
   Step          Temp          PotEng           Lx             Ly             Lz            Pxx            Pyy            Pzz            Fmax          Fnorm     
       500                     0   -246.8034446974229    10.03753344584573    8.692759472988389    49.91257031866717  0.01914863136740306  0.01860840519719756 -4.492202262724552e-06 5.567725453104614e-05 0.0001053445714275468
       501  1.149451334094071e-09    -246.803444697432    10.03753344584573    8.692759472988389    49.91257031866717  0.01917009304256688  0.01837275517776452 -4.483808263766811e-06 5.561862267047601e-05 0.0001051246839955789
Loop time of 0.000319458 on 1 procs for 1 steps with 31 atoms

13.1% CPU use with 1 MPI tasks x no OpenMP threads

Minimization stats:
  Stopping criterion = force tolerance
  Energy initial, next-to-last, final = 
     -246.803444697423  -246.803444697423  -246.803444697432
  Force two-norm initial, final = 0.00010534457 0.00010512468
  Force max component initial, final = 5.5677255e-05 5.5618623e-05
  Final line search alpha, max atom move = 0 0
  Iterations, force evaluations = 1 2

MPI task timing breakdown:
Section |  min time  |  avg time  |  max time  |%varavg| %total
---------------------------------------------------------------
Pair    | 7.9782e-05 | 7.9782e-05 | 7.9782e-05 |   0.0 | 24.97
Neigh   | 0          | 0          | 0          |   0.0 |  0.00
Comm    | 2.109e-06  | 2.109e-06  | 2.109e-06  |   0.0 |  0.66
Output  | 0          | 0          | 0          |   0.0 |  0.00
Modify  | 0          | 0          | 0          |   0.0 |  0.00
Other   |            | 0.0002376  |            |       | 74.37

Nlocal:             31 ave          31 max          31 min
Histogram: 1 0 0 0 0 0 0 0 0 0
Nghost:             81 ave          81 max          81 min
Histogram: 1 0 0 0 0 0 0 0 0 0
Neighs:              0 ave           0 max           0 min
Histogram: 1 0 0 0 0 0 0 0 0 0
FullNghs:          534 ave         534 max         534 min
Histogram: 1 0 0 0 0 0 0 0 0 0

Total # of neighbors = 534
Ave neighs/atom = 17.225806
Neighbor list builds = 0
Dangerous builds = 0

next nr
jump ${simname}.in loopmin
jump Tersoff.in loopmin

# Minimize the with cg + box/relax
  fix             frb all box/relax tri 0.0 couple none
  min_style       cg
  min_modify      line quadratic
  minimize        0.0 1.0e-3 10000 10000
WARNING: Energy due to 6 extra global DOFs will be included in minimizer energies
 (src/min.cpp:225)
Per MPI rank memory allocation (min/avg/max) = 4.202 | 4.202 | 4.202 Mbytes
   Step          Temp          PotEng           Lx             Ly             Lz            Pxx            Pyy            Pzz            Fmax          Fnorm     
       501  1.149451334094071e-09    -246.803444697432    10.03753344584573    8.692759472988389    49.91257031866717  0.01917009310532492  0.01837275535028867 -4.483808263726925e-06 5.561862267048294e-05 0.0001051246839881578
       502  1.149451334094071e-09   -246.8034446974436    10.03753411829261    8.692760031122688    49.91257031788458 -0.02860542444238943 -0.02792069929955621 -4.474876806404867e-06 5.552515670634794e-05 0.0001057236444273761
Loop time of 0.000518319 on 1 procs for 1 steps with 31 atoms

12.0% CPU use with 1 MPI tasks x no OpenMP threads

Minimization stats:
  Stopping criterion = force tolerance
  Energy initial, next-to-last, final = 
     -246.803444697432  -246.803444697432  -246.803444697444
  Force two-norm initial, final = 0.00013564742 0.00016603604
  Force max component initial, final = 5.5618623e-05 7.7755778e-05
  Final line search alpha, max atom move = 1 7.7755778e-05
  Iterations, force evaluations = 1 2

MPI task timing breakdown:
Section |  min time  |  avg time  |  max time  |%varavg| %total
---------------------------------------------------------------
Pair    | 0.00011912 | 0.00011912 | 0.00011912 |   0.0 | 22.98
Neigh   | 0          | 0          | 0          |   0.0 |  0.00
Comm    | 3.114e-06  | 3.114e-06  | 3.114e-06  |   0.0 |  0.60
Output  | 0          | 0          | 0          |   0.0 |  0.00
Modify  | 0          | 0          | 0          |   0.0 |  0.00
Other   |            | 0.0003961  |            |       | 76.42

Nlocal:             31 ave          31 max          31 min
Histogram: 1 0 0 0 0 0 0 0 0 0
Nghost:             81 ave          81 max          81 min
Histogram: 1 0 0 0 0 0 0 0 0 0
Neighs:              0 ave           0 max           0 min
Histogram: 1 0 0 0 0 0 0 0 0 0
FullNghs:          534 ave         534 max         534 min
Histogram: 1 0 0 0 0 0 0 0 0 0

Total # of neighbors = 534
Ave neighs/atom = 17.225806
Neighbor list builds = 0
Dangerous builds = 0

# Minimize the with fire
  unfix           frb
  min_style       fire
  minimize        0.0 1.0e-3 10000 10000
  Parameters for fire:
    dmax  delaystep dtgrow dtshrink alpha0 alphashrink tmax tmin   integrator   halfstepback   abcfire  
     0.1     20      1.1     0.5     0.25     0.99      10  0.02 eulerimplicit      yes          no     
Per MPI rank memory allocation (min/avg/max) = 3.077 | 3.077 | 3.077 Mbytes
   Step          Temp          PotEng           Lx             Ly             Lz            Pxx            Pyy            Pzz            Fmax          Fnorm     
       502                     0   -246.8034446974434    10.03753411829261    8.692760031122688    49.91257031788458 -0.02860542441524111 -0.02792069923338041 -4.477675507921495e-06 5.552515670633079e-05 0.0001057236444444915
       503  1.157738613724867e-09   -246.8034446974523    10.03753411829261    8.692760031122688    49.91257031788458 -0.02848988107386671 -0.02808080520942356 -4.469313895867284e-06 5.546684799004464e-05 0.0001054412428567329
Loop time of 0.000684924 on 1 procs for 1 steps with 31 atoms

0.0% CPU use with 1 MPI tasks x no OpenMP threads

Minimization stats:
  Stopping criterion = force tolerance
  Energy initial, next-to-last, final = 
     -246.803444697443  -246.803444697443  -246.803444697452
  Force two-norm initial, final = 0.00010572364 0.00010544124
  Force max component initial, final = 5.5525157e-05 5.5466848e-05
  Final line search alpha, max atom move = 0 0
  Iterations, force evaluations = 1 2

MPI task timing breakdown:
Section |  min time  |  avg time  |  max time  |%varavg| %total
---------------------------------------------------------------
Pair    | 8.0397e-05 | 8.0397e-05 | 8.0397e-05 |   0.0 | 11.74
Neigh   | 0          | 0          | 0          |   0.0 |  0.00
Comm    | 2.002e-06  | 2.002e-06  | 2.002e-06  |   0.0 |  0.29
Output  | 0          | 0          | 0          |   0.0 |  0.00
Modify  | 0          | 0          | 0          |   0.0 |  0.00
Other   |            | 0.0006025  |            |       | 87.97

Nlocal:             31 ave          31 max          31 min
Histogram: 1 0 0 0 0 0 0 0 0 0
Nghost:             81 ave          81 max          81 min
Histogram: 1 0 0 0 0 0 0 0 0 0
Neighs:              0 ave           0 max           0 min
Histogram: 1 0 0 0 0 0 0 0 0 0
FullNghs:          534 ave         534 max         534 min
Histogram: 1 0 0 0 0 0 0 0 0 0

Total # of neighbors = 534
Ave neighs/atom = 17.225806
Neighbor list builds = 0
Dangerous builds = 0

next nr
jump ${simname}.in loopmin
jump Tersoff.in loopmin

# Minimize the with cg + box/relax
  fix             frb all box/relax tri 0.0 couple none
  min_style       cg
  min_modify      line quadratic
  minimize        0.0 1.0e-3 10000 10000
Per MPI rank memory allocation (min/avg/max) = 4.202 | 4.202 | 4.202 Mbytes
   Step          Temp          PotEng           Lx             Ly             Lz            Pxx            Pyy            Pzz            Fmax          Fnorm     
WARNING: Too many warnings: 101 vs 100. All future warnings will be suppressed (src/thermo.cpp:472)
       503  1.157738613724867e-09   -246.8034446974524    10.03753411829261    8.692760031122688    49.91257031788458 -0.02848988104276825 -0.02808080507872346 -4.469313901930033e-06 5.546684799004793e-05 0.0001054412428469093
       504  1.157738613724867e-09   -246.8034446974646    10.03753345189925    8.692759462295642    49.91257031736443  0.01904203197622756  0.01852045629777648 -4.463366429971707e-06 5.540458566229877e-05 0.000104546429903836
Loop time of 0.000438986 on 1 procs for 1 steps with 31 atoms

0.0% CPU use with 1 MPI tasks x no OpenMP threads

Minimization stats:
  Stopping criterion = force tolerance
  Energy initial, next-to-last, final = 
     -246.803444697452  -246.803444697452  -246.803444697465
  Force two-norm initial, final = 0.00016508392 0.00013514707
  Force max component initial, final = 7.7441712e-05 5.5404586e-05
  Final line search alpha, max atom move = 1 5.5404586e-05
  Iterations, force evaluations = 1 2

MPI task timing breakdown:
Section |  min time  |  avg time  |  max time  |%varavg| %total
---------------------------------------------------------------
Pair    | 9.1431e-05 | 9.1431e-05 | 9.1431e-05 |   0.0 | 20.83
Neigh   | 0          | 0          | 0          |   0.0 |  0.00
Comm    | 4.013e-06  | 4.013e-06  | 4.013e-06  |   0.0 |  0.91
Output  | 0          | 0          | 0          |   0.0 |  0.00
Modify  | 0          | 0          | 0          |   0.0 |  0.00
Other   |            | 0.0003435  |            |       | 78.26

Nlocal:             31 ave          31 max          31 min
Histogram: 1 0 0 0 0 0 0 0 0 0
Nghost:             81 ave          81 max          81 min
Histogram: 1 0 0 0 0 0 0 0 0 0
Neighs:              0 ave           0 max           0 min
Histogram: 1 0 0 0 0 0 0 0 0 0
FullNghs:          534 ave         534 max         534 min
Histogram: 1 0 0 0 0 0 0 0 0 0

Total # of neighbors = 534
Ave neighs/atom = 17.225806
Neighbor list builds = 0
Dangerous builds = 0

# Minimize the with fire
  unfix           frb
  min_style       fire
  minimize        0.0 1.0e-3 10000 10000
  Parameters for fire:
    dmax  delaystep dtgrow dtshrink alpha0 alphashrink tmax tmin   integrator   halfstepback   abcfire  
     0.1     20      1.1     0.5     0.25     0.99      10  0.02 eulerimplicit      yes          no     
Per MPI rank memory allocation (min/avg/max) = 3.077 | 3.077 | 3.077 Mbytes
   Step          Temp          PotEng           Lx             Ly             Lz            Pxx            Pyy            Pzz            Fmax          Fnorm     
       504                     0   -246.8034446974646    10.03753345189925    8.692759462295642    49.91257031736443  0.01904203195217337  0.01852045598203263 -4.466154340806095e-06 5.540458566229993e-05 0.0001045464299095336
       505  1.132099715900428e-09   -246.8034446974732    10.03753345189925    8.692759462295642    49.91257031736443  0.01906409227152619  0.01829326241747647 -4.457818349640935e-06 5.534653885727423e-05 0.0001043334584425829
Loop time of 0.000367491 on 1 procs for 1 steps with 31 atoms

0.0% CPU use with 1 MPI tasks x no OpenMP threads

Minimization stats:
  Stopping criterion = force tolerance
  Energy initial, next-to-last, final = 
     -246.803444697465  -246.803444697465  -246.803444697473
  Force two-norm initial, final = 0.00010454643 0.00010433346
  Force max component initial, final = 5.5404586e-05 5.5346539e-05
  Final line search alpha, max atom move = 0 0
  Iterations, force evaluations = 1 2

MPI task timing breakdown:
Section |  min time  |  avg time  |  max time  |%varavg| %total
---------------------------------------------------------------
Pair    | 0.00010502 | 0.00010502 | 0.00010502 |   0.0 | 28.58
Neigh   | 0          | 0          | 0          |   0.0 |  0.00
Comm    | 3.168e-06  | 3.168e-06  | 3.168e-06  |   0.0 |  0.86
Output  | 0          | 0          | 0          |   0.0 |  0.00
Modify  | 0          | 0          | 0          |   0.0 |  0.00
Other   |            | 0.0002593  |            |       | 70.56

Nlocal:             31 ave          31 max          31 min
Histogram: 1 0 0 0 0 0 0 0 0 0
Nghost:             81 ave          81 max          81 min
Histogram: 1 0 0 0 0 0 0 0 0 0
Neighs:              0 ave           0 max           0 min
Histogram: 1 0 0 0 0 0 0 0 0 0
FullNghs:          534 ave         534 max         534 min
Histogram: 1 0 0 0 0 0 0 0 0 0

Total # of neighbors = 534
Ave neighs/atom = 17.225806
Neighbor list builds = 0
Dangerous builds = 0

next nr
jump ${simname}.in loopmin
jump Tersoff.in loopmin

variable        energy equal pe
fix             output all ave/time 1 1 1 v_energy file ${simname}_energy.data
fix             output all ave/time 1 1 1 v_energy file Tersoff_energy.data
dump            dump1 all custom 1 ${simname}.lammpstrj id type x y z fx fy fz
dump            dump1 all custom 1 Tersoff.lammpstrj id type x y z fx fy fz
dump_modify     dump1 sort id

fix             nve all nve
run             0
Per MPI rank memory allocation (min/avg/max) = 3.077 | 3.077 | 3.077 Mbytes
   Step          Temp          PotEng           Lx             Ly             Lz            Pxx            Pyy            Pzz            Fmax          Fnorm     
       505  1.132099715900428e-09   -246.8034446974733    10.03753345189925    8.692759462295642    49.91257031736443  0.01906409232679004  0.01829326249328254 -4.45781835837608e-06 5.534653885727334e-05 0.0001043334584511068
Loop time of 8.81e-07 on 1 procs for 0 steps with 31 atoms

0.0% CPU use with 1 MPI tasks x no OpenMP threads

MPI task timing breakdown:
Section |  min time  |  avg time  |  max time  |%varavg| %total
---------------------------------------------------------------
Pair    | 0          | 0          | 0          |   0.0 |  0.00
Neigh   | 0          | 0          | 0          |   0.0 |  0.00
Comm    | 0          | 0          | 0          |   0.0 |  0.00
Output  | 0          | 0          | 0          |   0.0 |  0.00
Modify  | 0          | 0          | 0          |   0.0 |  0.00
Other   |            | 8.81e-07   |            |       |100.00

Nlocal:             31 ave          31 max          31 min
Histogram: 1 0 0 0 0 0 0 0 0 0
Nghost:             81 ave          81 max          81 min
Histogram: 1 0 0 0 0 0 0 0 0 0
Neighs:              0 ave           0 max           0 min
Histogram: 1 0 0 0 0 0 0 0 0 0
FullNghs:          534 ave         534 max         534 min
Histogram: 1 0 0 0 0 0 0 0 0 0

Total # of neighbors = 534
Ave neighs/atom = 17.225806
Neighbor list builds = 0
Dangerous builds = 0
Total wall time: 0:00:00
