       N       E                     dE             d eps       ncg     rms          rms(c)
DAV:   1     0.151972143380E+04    0.15197E+04   -0.44470E+04  2520   0.141E+03
DAV:   2     0.190712495141E+03   -0.13290E+04   -0.12294E+04  3696   0.221E+02
DAV:   3    -0.281363333308E+03   -0.47208E+03   -0.46717E+03  2784   0.139E+02
DAV:   4    -0.315460202503E+03   -0.34097E+02   -0.33836E+02  2832   0.524E+01
DAV:   5    -0.316146658267E+03   -0.68646E+00   -0.68073E+00  2868   0.766E+00    0.253E+01
DAV:   6    -0.301390895036E+03    0.14756E+02   -0.13479E+01  2652   0.102E+01    0.150E+01
DAV:   7    -0.295619625544E+03    0.57713E+01   -0.19449E+01  2448   0.121E+01    0.385E+00
DAV:   8    -0.295510743202E+03    0.10888E+00   -0.44938E-01  2808   0.215E+00    0.430E-01
DAV:   9    -0.295483376409E+03    0.27367E-01   -0.35041E-02  2748   0.503E-01    0.283E-01
DAV:  10    -0.295453673748E+03    0.29703E-01   -0.32776E-02  2328   0.363E-01    0.169E-01
DAV:  11    -0.295456874772E+03   -0.32010E-02   -0.42711E-03  2412   0.166E-01    0.120E-01
DAV:  12    -0.295462502445E+03   -0.56277E-02   -0.30971E-03  2316   0.126E-01    0.378E-02
DAV:  13    -0.295467332981E+03   -0.48305E-02   -0.21875E-04  2532   0.289E-02    0.275E-02
DAV:  14    -0.295476588279E+03   -0.92553E-02   -0.10805E-03  2220   0.478E-02    0.115E-02
DAV:  15    -0.295478170040E+03   -0.15818E-02   -0.74049E-05  2376   0.171E-02    0.783E-03
DAV:  16    -0.295479310087E+03   -0.11400E-02   -0.43812E-05  2424   0.114E-02    0.418E-03
DAV:  17    -0.295479913370E+03   -0.60328E-03   -0.27070E-05  2364   0.809E-03    0.278E-03
DAV:  18    -0.295480033672E+03   -0.12030E-03   -0.90146E-07  2112   0.265E-03    0.124E-03
DAV:  19    -0.295480148764E+03   -0.11509E-03   -0.71733E-07  2016   0.172E-03    0.750E-04
DAV:  20    -0.295480176229E+03   -0.27465E-04   -0.46319E-08  1548   0.645E-04    0.340E-04
DAV:  21    -0.295480196292E+03   -0.20063E-04   -0.52023E-08  1572   0.493E-04    0.212E-04
DAV:  22    -0.295480204584E+03   -0.82919E-05   -0.12055E-08  1500   0.338E-04    0.119E-04
DAV:  23    -0.295480207675E+03   -0.30917E-05   -0.29722E-09  1500   0.203E-04    0.801E-05
DAV:  24    -0.295480210527E+03   -0.28512E-05   -0.61782E-09  1428   0.208E-04    0.734E-05
DAV:  25    -0.295480210917E+03   -0.39004E-06    0.33156E-09  1500   0.971E-05    0.299E-05
DAV:  26    -0.295480211461E+03   -0.54468E-06    0.29168E-09  1428   0.820E-05    0.164E-05
DAV:  27    -0.295480211516E+03   -0.54619E-07    0.42785E-09  1560   0.337E-05
   1 F= -.29814408E+03 E0= -.29814408E+03  d E =-.298144E+03
       N       E                     dE             d eps       ncg     rms          rms(c)
DAV:   1    -0.295492530066E+03   -0.12319E-01   -0.24903E-01  2256   0.197E+00    0.325E-01
DAV:   2    -0.295490818105E+03    0.17120E-02   -0.40369E-03  2340   0.234E-01    0.212E-01
DAV:   3    -0.295489526686E+03    0.12914E-02   -0.20484E-03  2316   0.154E-01    0.205E-02
DAV:   4    -0.295489560909E+03   -0.34223E-04   -0.13688E-04  2304   0.396E-02    0.136E-02
DAV:   5    -0.295489595223E+03   -0.34314E-04   -0.11980E-05  2304   0.121E-02    0.508E-03
DAV:   6    -0.295489625370E+03   -0.30147E-04   -0.24736E-06  2352   0.469E-03    0.309E-03
DAV:   7    -0.295489694235E+03   -0.68865E-04   -0.96286E-06  2328   0.574E-03    0.148E-03
DAV:   8    -0.295489702256E+03   -0.80211E-05   -0.20345E-07  2160   0.112E-03    0.112E-03
DAV:   9    -0.295489732026E+03   -0.29770E-04   -0.38397E-06  2016   0.266E-03    0.426E-04
DAV:  10    -0.295489735841E+03   -0.38153E-05   -0.13489E-07  2148   0.768E-04    0.388E-04
DAV:  11    -0.295489739336E+03   -0.34946E-05   -0.17732E-07  2016   0.584E-04    0.219E-04
DAV:  12    -0.295489739867E+03   -0.53138E-06    0.46081E-10  1476   0.170E-04    0.827E-05
DAV:  13    -0.295489740594E+03   -0.72684E-06   -0.88146E-09  1404   0.173E-04    0.749E-05
DAV:  14    -0.295489740799E+03   -0.20423E-06    0.73016E-10  1416   0.104E-04    0.235E-05
DAV:  15    -0.295489740952E+03   -0.15314E-06    0.33290E-09  1464   0.578E-05    0.134E-05
DAV:  16    -0.295489741030E+03   -0.77856E-07    0.38063E-09  1416   0.390E-05
   2 F= -.29814182E+03 E0= -.29814182E+03  d E =0.225789E-02
       N       E                     dE             d eps       ncg     rms          rms(c)
DAV:   1    -0.295486631489E+03    0.31095E-02   -0.11165E-01  2256   0.134E+00    0.215E-01
DAV:   2    -0.295486152344E+03    0.47914E-03   -0.18824E-03  2352   0.160E-01    0.141E-01
DAV:   3    -0.295485784616E+03    0.36773E-03   -0.62718E-04  2184   0.914E-02    0.158E-02
DAV:   4    -0.295485783573E+03    0.10438E-05   -0.49809E-05  2388   0.239E-02    0.848E-03
DAV:   5    -0.295485781710E+03    0.18630E-05   -0.38452E-06  2424   0.681E-03    0.381E-03
DAV:   6    -0.295485784439E+03   -0.27292E-05   -0.82219E-07  2376   0.292E-03    0.170E-03
DAV:   7    -0.295485796023E+03   -0.11585E-04   -0.90204E-07  2016   0.220E-03    0.714E-04
DAV:   8    -0.295485799537E+03   -0.35138E-05   -0.33610E-08  1536   0.650E-04    0.616E-04
DAV:   9    -0.295485812173E+03   -0.12636E-04   -0.59361E-07  1944   0.112E-03    0.243E-04
DAV:  10    -0.295485815413E+03   -0.32405E-05   -0.25824E-08  1536   0.482E-04    0.241E-04
DAV:  11    -0.295485819259E+03   -0.38456E-05   -0.44209E-08  1440   0.335E-04    0.149E-04
DAV:  12    -0.295485819687E+03   -0.42811E-06    0.60517E-10  1500   0.146E-04    0.426E-05
DAV:  13    -0.295485820482E+03   -0.79484E-06   -0.10558E-09  1464   0.133E-04    0.415E-05
DAV:  14    -0.295485820745E+03   -0.26293E-06    0.26616E-09  1500   0.855E-05    0.164E-05
DAV:  15    -0.295485820851E+03   -0.10652E-06    0.38322E-09  1464   0.463E-05    0.130E-05
DAV:  16    -0.295485820930E+03   -0.78742E-07    0.39051E-09  1464   0.388E-05
   3 F= -.29814597E+03 E0= -.29814597E+03  d E =-.414792E-02
