 vasp.5.4.4.18Apr17-6-g9f103f2a35 (build Jan 12 2023 11:40:15) complex          
  
 executed on             LinuxIFC date 2023.12.04  09:39:53
 running on   48 total cores
 distrk:  each k-point on   48 cores,    1 groups
 distr:  one band on NCORES_PER_BAND=   8 cores,    6 groups


--------------------------------------------------------------------------------------------------------


 INCAR:
 POTCAR:    PAW_PBE C 08Apr2002                   
 POTCAR:    PAW_PBE C 08Apr2002                   
   SHA256 =  253f7b50bb8d59471dbedb8285d89021f4a42ed1a2c5d38a03a736e69125dd95 C/
   COPYR  = (c) Copyright 08Apr2002 Georg Kresse                                
   COPYR  = This file is part of the software VASP. Any use, copying, and all ot
   COPYR  = If you do not have a valid VASP license, you may not use, copy or di
   VRHFIN =C: s2p2                                                              
   LEXCH  = PE                                                                  
   EATOM  =   147.1560 eV,   10.8157 Ry                                         
                                                                                
   TITEL  = PAW_PBE C 08Apr2002                                                 
   LULTRA =        F    use ultrasoft PP ?                                      
   IUNSCR =        1    unscreen: 0-lin 1-nonlin 2-no                           
   RPACOR =    1.200    partial core radius                                     
   POMASS =   12.011; ZVAL   =    4.000    mass and valenz                      
   RCORE  =    1.500    outmost cutoff radius                                   
   RWIGS  =    1.630; RWIGS  =    0.863    wigner-seitz radius (au A)           
   ENMAX  =  400.000; ENMIN  =  300.000 eV                                      
   ICORE  =        2    local potential                                         
   LCOR   =        T    correct aug charges                                     
   LPAW   =        T    paw PP                                                  
   EAUG   =  644.873                                                            
   DEXC   =    0.000                                                            
   RMAX   =    1.529    core radius for proj-oper                               
   RAUG   =    1.300    factor for augmentation sphere                          
   RDEP   =    1.501    radius for radial grids                                 
   RDEPT  =    1.300    core radius for aug-charge                              
                                                                                
   Atomic configuration                                                         
    4 entries                                                                   
     n  l   j            E        occ.                                          
     1  0  0.50      -273.3789   2.0000                                         
     2  0  0.50       -13.7508   2.0000                                         
     2  1  0.50        -5.2854   2.0000                                         
     3  2  1.50        -5.4423   0.0000                                         
   Description                                                                  
     l       E           TYP  RCUT    TYP  RCUT                                 
     0    -13.7508458     23  1.200                                             
     0     -8.2022199     23  1.200                                             
     1     -5.2854383     23  1.500                                             
     1     34.0145650     23  1.500                                             
     2     -5.4423304      7  1.500                                             
  local pseudopotential read in
  partial core-charges read in
  partial kinetic energy density read in
  atomic valenz-charges read in
  non local Contribution for L=           0  read in
    real space projection operators read in
  non local Contribution for L=           0  read in
    real space projection operators read in
  non local Contribution for L=           1  read in
    real space projection operators read in
  non local Contribution for L=           1  read in
    real space projection operators read in
    PAW grid and wavefunctions read in
 
   number of l-projection  operators is LMAX  =           4
   number of lm-projection operators is LMMAX =           8
 

 ----------------------------------------------------------------------------- 
|                                                                             |
|  ADVICE TO THIS USER RUNNING 'VASP/VAMP'   (HEAR YOUR MASTER'S VOICE ...):  |
|                                                                             |
|      You have a (more or less) 'large supercell' and for larger cells       |
|      it might be more efficient to use real space projection opertators     |
|      So try LREAL= Auto  in the INCAR   file.                               |
|      Mind:          For very  accurate calculation you might also keep the  |
|      reciprocal projection scheme          (i.e. LREAL=.FALSE.)             |
|                                                                             |
 ----------------------------------------------------------------------------- 

  PAW_PBE C 08Apr2002                   :
 energy of atom  1       EATOM= -147.1560
 kinetic energy error for atom=    0.0012 (will be added to EATOM!!)
 
 
 POSCAR: POSCAR file written by OVITO Basic 3.7.8
  positions in direct lattice
  velocities in cartesian coordinates
 exchange correlation table for  LEXCH =        8
   RHO(1)=    0.500       N(1)  =     2000
   RHO(2)=  100.500       N(2)  =     4000
 


--------------------------------------------------------------------------------------------------------


 ion  position               nearest neighbor table
   1  1.000  1.000  0.468-  26 1.42   8 1.42   2 1.42
   2  0.083  0.083  0.468-   9 1.42   3 1.42   1 1.42
   3  1.000  0.250  0.468-  28 1.42   2 1.42   4 1.42
   4  0.083  0.333  0.468-  11 1.42   5 1.42   3 1.42
   5  1.000  0.500  0.468-  30 1.42   4 1.42   6 1.42
   6  0.083  0.583  0.468-  13 1.42   7 1.42   5 1.42
   7  1.000  0.750  0.468-  32 1.42   6 1.42   8 1.42
   8  0.083  0.833  0.468-  15 1.42   1 1.42   7 1.42
   9  0.250  1.000  0.468-   2 1.42  16 1.42  10 1.42
  10  0.333  0.083  0.468-  17 1.42  11 1.42   9 1.42
  11  0.250  0.250  0.468-   4 1.42  10 1.42  12 1.42
  12  0.333  0.333  0.468-  19 1.42  13 1.42  11 1.42
  13  0.250  0.500  0.468-   6 1.42  12 1.42  14 1.42
  14  0.333  0.583  0.468-  21 1.42  15 1.42  13 1.42
  15  0.250  0.750  0.468-   8 1.42  14 1.42  16 1.42
  16  0.333  0.833  0.468-  23 1.42   9 1.42  15 1.42
  17  0.500  1.000  0.468-  10 1.42  24 1.42  18 1.42
  18  0.583  0.083  0.468-  25 1.42  19 1.42  17 1.42
  19  0.500  0.250  0.468-  12 1.42  18 1.42  20 1.42
  20  0.583  0.333  0.468-  27 1.42  21 1.42  19 1.42
  21  0.500  0.500  0.468-  14 1.42  20 1.42  22 1.42
  22  0.583  0.583  0.468-  29 1.42  23 1.42  21 1.42
  23  0.500  0.750  0.468-  16 1.42  22 1.42  24 1.42
  24  0.583  0.833  0.468-  31 1.42  17 1.42  23 1.42
  25  0.750  1.000  0.468-  18 1.42  32 1.42  26 1.42
  26  0.833  0.083  0.468-   1 1.42  27 1.42  25 1.42
  27  0.750  0.250  0.468-  20 1.42  26 1.42  28 1.42
  28  0.833  0.333  0.468-   3 1.42  29 1.42  27 1.42
  29  0.750  0.500  0.468-  22 1.42  28 1.42  30 1.42
  30  0.833  0.583  0.468-   5 1.42  31 1.42  29 1.42
  31  0.750  0.750  0.468-  24 1.42  30 1.42  32 1.42
  32  0.833  0.833  0.468-   7 1.42  25 1.42  31 1.42
 

IMPORTANT INFORMATION: All symmetrisations will be switched off!
NOSYMM: (Re-)initialisation of all symmetry stuff for point group C_1.

 
 

Automatic generation of k-mesh.
 generate k-points for:    5    5    1
Space group operators:
 irot       det(A)        alpha          n_x          n_y          n_z        tau_x        tau_y        tau_z
    1     1.000000     0.000000     1.000000     0.000000     0.000000     0.000000     0.000000     0.000000
 
 Subroutine IBZKPT returns following result:
 ===========================================
 
 Found     13 irreducible k-points:
 
 Following reciprocal coordinates:
            Coordinates               Weight
  0.000000  0.000000  0.000000      1.000000
  0.200000  0.000000  0.000000      2.000000
  0.400000  0.000000  0.000000      2.000000
  0.000000  0.200000  0.000000      2.000000
  0.200000  0.200000  0.000000      2.000000
  0.400000  0.200000  0.000000      2.000000
 -0.400000  0.200000  0.000000      2.000000
 -0.200000  0.200000  0.000000      2.000000
  0.000000  0.400000  0.000000      2.000000
  0.200000  0.400000  0.000000      2.000000
  0.400000  0.400000  0.000000      2.000000
 -0.400000  0.400000  0.000000      2.000000
 -0.200000  0.400000  0.000000      2.000000
 
 Following cartesian coordinates:
            Coordinates               Weight
  0.000000  0.000000  0.000000      1.000000
  0.020311 -0.011741  0.000000      2.000000
  0.040623 -0.023482  0.000000      2.000000
  0.000000  0.023451  0.000000      2.000000
  0.020311  0.011710  0.000000      2.000000
  0.040623 -0.000032  0.000000      2.000000
 -0.040623  0.046933  0.000000      2.000000
 -0.020311  0.035192  0.000000      2.000000
  0.000000  0.046902  0.000000      2.000000
  0.020311  0.035160  0.000000      2.000000
  0.040623  0.023419  0.000000      2.000000
 -0.040623  0.070384  0.000000      2.000000
 -0.020311  0.058643  0.000000      2.000000
 
 TETIRR: Found     72 inequivalent tetrahedra from      150


--------------------------------------------------------------------------------------------------------




 Dimension of arrays:
   k-points           NKPTS =     13   k-points in BZ     NKDIM =     13   number of bands    NBANDS=     84
   number of dos      NEDOS =    301   number of ions     NIONS =     32
   non local maximal  LDIM  =      4   non local SUM 2l+1 LMDIM =      8
   total plane-waves  NPLWV = ******
   max r-space proj   IRMAX =      1   max aug-charges    IRDMAX=  12631
   dimension x,y,z NGX =    96 NGY =   96 NGZ =  480
   dimension x,y,z NGXF=   192 NGYF=  192 NGZF=  960
   support grid    NGXF=   192 NGYF=  192 NGZF=  960
   ions per type =              32
   NGX,Y,Z   is equivalent  to a cutoff of  16.21, 16.20, 15.96 a.u.
   NGXF,Y,Z  is equivalent  to a cutoff of  32.42, 32.40, 31.92 a.u.

 SYSTEM =  unknown system                          
 POSCAR =  POSCAR file written by OVITO Basic 3.7.8

 Startparameter for this run:
   NWRITE =      2    write-flag & timer
   PREC   = accura    normal or accurate (medium, high low for compatibility)
   ISTART =      0    job   : 0-new  1-cont  2-samecut
   ICHARG =      2    charge: 1-file 2-atom 10-const
   ISPIN  =      1    spin polarized calculation?
   LNONCOLLINEAR =      F non collinear calculations
   LSORBIT =      F    spin-orbit coupling
   INIWAV =      1    electr: 0-lowe 1-rand  2-diag
   LASPH  =      F    aspherical Exc in radial PAW
   METAGGA=      F    non-selfconsistent MetaGGA calc.

 Electronic Relaxation 1
   ENCUT  =  850.0 eV  62.47 Ry    7.90 a.u.  23.41 23.42118.86*2*pi/ulx,y,z
   ENINI  =  850.0     initial cutoff
   ENAUG  =  644.9 eV  augmentation charge cutoff
   NELM   =    150;   NELMIN=  2; NELMDL= -5     # of ELM steps 
   EDIFF  = 0.1E-06   stopping-criterion for ELM
   LREAL  =      F    real-space projection
   NLSPLINE    = F    spline interpolate recip. space projectors
   LCOMPAT=      F    compatible to vasp.4.4
   GGA_COMPAT  = T    GGA compatible to vasp.4.4-vasp.4.6
   LMAXPAW     = -100 max onsite density
   LMAXMIX     =    2 max onsite mixed and CHGCAR
   VOSKOWN=      0    Vosko Wilk Nusair interpolation
   ROPT   =    0.00000
 Ionic relaxation
   EDIFFG = 0.1E-01   stopping-criterion for IOM
   NSW    =   1000    number of steps for IOM
   NBLOCK =      1;   KBLOCK =   1000    inner block; outer block 
   IBRION =      1    ionic relax: 0-MD 1-quasi-New 2-CG
   NFREE  =      0    steps in history (QN), initial steepest desc. (CG)
   ISIF   =      3    stress and relaxation
   IWAVPR =     11    prediction:  0-non 1-charg 2-wave 3-comb
   ISYM   =      0    0-nonsym 1-usesym 2-fastsym
   LCORR  =      T    Harris-Foulkes like correction to forces

   POTIM  = 0.5000    time-step for ionic-motion
   TEIN   =    0.0    initial temperature
   TEBEG  =    0.0;   TEEND  =   0.0 temperature during run
   SMASS  =  -3.00    Nose mass-parameter (am)
   estimated Nose-frequenzy (Omega)   =  0.10E-29 period in steps =****** mass=  -0.222E-26a.u.
   SCALEE = 1.0000    scale energy and forces
   NPACO  =    256;   APACO  = 16.0  distance and # of slots for P.C.
   PSTRESS=    0.0 pullay stress

  Mass of Ions in am
   POMASS =  12.01
  Ionic Valenz
   ZVAL   =   4.00
  Atomic Wigner-Seitz radii
   RWIGS  =  -1.00
  virtual crystal weights 
   VCA    =   1.00
   NELECT =     128.0000    total number of electrons
   NUPDOWN=      -1.0000    fix difference up-down

 DOS related values:
   EMIN   =  10.00;   EMAX   =-10.00  energy-range for DOS
   EFERMI =   0.00
   ISMEAR =    -5;   SIGMA  =   0.02  broadening in eV -4-tet -1-fermi 0-gaus

 Electronic relaxation 2 (details)
   IALGO  =     38    algorithm
   LDIAG  =      T    sub-space diagonalisation (order eigenvalues)
   LSUBROT=      F    optimize rotation matrix (better conditioning)
   TURBO    =      0    0=normal 1=particle mesh
   IRESTART =      0    0=no restart 2=restart with 2 vectors
   NREBOOT  =      0    no. of reboots
   NMIN     =      0    reboot dimension
   EREF     =   0.00    reference energy to select bands
   IMIX   =      4    mixing-type and parameters
     AMIX     =   0.40;   BMIX     =  1.00
     AMIX_MAG =   1.60;   BMIX_MAG =  1.00
     AMIN     =   0.10
     WC   =   100.;   INIMIX=   1;  MIXPRE=   1;  MAXMIX= -45

 Intra band minimization:
   WEIMIN = 0.0010     energy-eigenvalue tresh-hold
   EBREAK =  0.30E-09  absolut break condition
   DEPER  =   0.30     relativ break condition  

   TIME   =   0.40     timestep for ELM

  volume/ion in A,a.u.               =     131.21       885.48
  Fermi-wavevector in a.u.,A,eV,Ry     =   0.511407  0.966420  3.558435  0.261538
  Thomas-Fermi vector in A             =   1.524886
 
 Write flags
   LWAVE        =      F    write WAVECAR
   LDOWNSAMPLE  =      F    k-point downsampling of WAVECAR
   LCHARG       =      F    write CHGCAR
   LVTOT        =      F    write LOCPOT, total local potential
   LVHAR        =      F    write LOCPOT, Hartree potential only
   LELF         =      F    write electronic localiz. function (ELF)
   LORBIT       =      0    0 simple, 1 ext, 2 COOP (PROOUT), +10 PAW based schemes


 Dipole corrections
   LMONO  =      F    monopole corrections only (constant potential shift)
   LDIPOL =      F    correct potential (dipole corrections)
   IDIPOL =      0    1-x, 2-y, 3-z, 4-all directions 
   EPSILON=  1.0000000 bulk dielectric constant

 Exchange correlation treatment:
   GGA     =    --    GGA type
   LEXCH   =     8    internal setting for exchange type
   VOSKOWN=      0    Vosko Wilk Nusair interpolation
   LHFCALC =     F    Hartree Fock is set to
   LHFONE  =     F    Hartree Fock one center treatment
   AEXX    =    0.0000 exact exchange contribution

 Linear response parameters
   LEPSILON=     F    determine dielectric tensor
   LRPA    =     F    only Hartree local field effects (RPA)
   LNABLA  =     F    use nabla operator in PAW spheres
   LVEL    =     F    velocity operator in full k-point grid
   LINTERFAST=   F  fast interpolation
   KINTER  =     0    interpolate to denser k-point grid
   CSHIFT  =0.1000    complex shift for real part using Kramers Kronig
   OMEGAMAX=  -1.0    maximum frequency
   DEG_THRESHOLD= 0.2000000E-02 threshold for treating states as degnerate
   RTIME   =   -0.100 relaxation time in fs
  (WPLASMAI=    0.000 imaginary part of plasma frequency in eV, 0.658/RTIME)
   DFIELD  = 0.0000000 0.0000000 0.0000000 field for delta impulse in time
 
 Orbital magnetization related:
   ORBITALMAG=     F  switch on orbital magnetization
   LCHIMAG   =     F  perturbation theory with respect to B field
   DQ        =  0.001000  dq finite difference perturbation B field
   LLRAUG    =     F  two centre corrections for induced B field



--------------------------------------------------------------------------------------------------------


 quasi-Newton-method for relaxation of ions
 charge density and potential will be updated during run
 non-spin polarized calculation
 Variant of blocked Davidson
 Davidson routine will perform the subspace rotation
 perform sub-space diagonalisation
    after iterative eigenvector-optimisation
 modified Broyden-mixing scheme, WC =      100.0
 initial mixing is a Kerker type mixing with AMIX =  0.4000 and BMIX =      1.0000
 Hartree-type preconditioning will be used
 using additional bands           20
 reciprocal scheme for non local part
 use partial core corrections
 calculate Harris-corrections to forces 
   (improved forces if not selfconsistent)
 use gradient corrections 
 use of overlap-Matrix (Vanderbilt PP)
 Fermi weights with tetrahedron method with Bloechl corrections


--------------------------------------------------------------------------------------------------------


  energy-cutoff  :      850.00
  volume of cell :     4198.88
      direct lattice vectors                 reciprocal lattice vectors
     9.846720000  0.000000000  0.000000000     0.101556660 -0.058706163  0.000000000
     4.930000000  8.528480000  0.000000000     0.000000000  0.117254188  0.000000000
     0.000000000  0.000000000 50.000000000     0.000000000  0.000000000  0.020000000

  length of vectors
     9.846720000  9.850881743 50.000000000     0.117303746  0.117254188  0.020000000


 
 k-points in units of 2pi/SCALE and weight: read from INCAR                         
   0.00000000  0.00000000  0.00000000       0.040
   0.02031133 -0.01174123  0.00000000       0.080
   0.04062266 -0.02348247  0.00000000       0.080
   0.00000000  0.02345084  0.00000000       0.080
   0.02031133  0.01170961  0.00000000       0.080
   0.04062266 -0.00003163  0.00000000       0.080
  -0.04062266  0.04693330  0.00000000       0.080
  -0.02031133  0.03519207  0.00000000       0.080
   0.00000000  0.04690168  0.00000000       0.080
   0.02031133  0.03516044  0.00000000       0.080
   0.04062266  0.02341921  0.00000000       0.080
  -0.04062266  0.07038414  0.00000000       0.080
  -0.02031133  0.05864291  0.00000000       0.080
 
 k-points in reciprocal lattice and weights: read from INCAR                         
   0.00000000  0.00000000  0.00000000       0.040
   0.20000000  0.00000000  0.00000000       0.080
   0.40000000  0.00000000  0.00000000       0.080
   0.00000000  0.20000000  0.00000000       0.080
   0.20000000  0.20000000  0.00000000       0.080
   0.40000000  0.20000000  0.00000000       0.080
  -0.40000000  0.20000000  0.00000000       0.080
  -0.20000000  0.20000000  0.00000000       0.080
   0.00000000  0.40000000  0.00000000       0.080
   0.20000000  0.40000000  0.00000000       0.080
   0.40000000  0.40000000  0.00000000       0.080
  -0.40000000  0.40000000  0.00000000       0.080
  -0.20000000  0.40000000  0.00000000       0.080
 
 position of ions in fractional coordinates (direct lattice) 
   0.99994770  0.99989583  0.46800000
   0.08326389  0.08323171  0.46800000
   0.99994770  0.24989583  0.46800000
   0.08326389  0.33323171  0.46800000
   0.99994770  0.49989583  0.46800000
   0.08326389  0.58323171  0.46800000
   0.99994770  0.74989583  0.46800000
   0.08326389  0.83323171  0.46800000
   0.24994770  0.99989583  0.46800000
   0.33326389  0.08323171  0.46800000
   0.24994770  0.24989583  0.46800000
   0.33326389  0.33323171  0.46800000
   0.24994770  0.49989583  0.46800000
   0.33326389  0.58323171  0.46800000
   0.24994770  0.74989583  0.46800000
   0.33326389  0.83323171  0.46800000
   0.49994770  0.99989583  0.46800000
   0.58326389  0.08323171  0.46800000
   0.49994770  0.24989583  0.46800000
   0.58326389  0.33323171  0.46800000
   0.49994770  0.49989583  0.46800000
   0.58326389  0.58323171  0.46800000
   0.49994770  0.74989583  0.46800000
   0.58326389  0.83323171  0.46800000
   0.74994769  0.99989583  0.46800000
   0.83326389  0.08323171  0.46800000
   0.74994770  0.24989583  0.46800000
   0.83326389  0.33323171  0.46800000
   0.74994770  0.49989583  0.46800000
   0.83326389  0.58323171  0.46800000
   0.74994769  0.74989583  0.46800000
   0.83326389  0.83323171  0.46800000
 
 position of ions in cartesian coordinates  (Angst):
  14.77569142  8.52759160 23.40000000
   1.23020859  0.70983999 23.40000000
  11.07819142  2.13123159 23.40000000
   2.46270858  2.84195999 23.40000000
  12.31069141  4.26335159 23.40000000
   3.69520858  4.97407999 23.40000000
  13.54319141  6.39547159 23.40000000
   4.92770859  7.10619999 23.40000000
   7.39065142  8.52759160 23.40000000
   3.69188858  0.70983999 23.40000000
   3.69315141  2.13123159 23.40000000
   4.92438858  2.84195999 23.40000000
   4.92565141  4.26335159 23.40000000
   6.15688859  4.97407999 23.40000000
   6.15815142  6.39547160 23.40000000
   7.38938859  7.10619999 23.40000000
   9.85233142  8.52759159 23.40000000
   6.15356858  0.70983999 23.40000000
   6.15483142  2.13123159 23.40000000
   7.38606859  2.84195999 23.40000000
   7.38733142  4.26335159 23.40000000
   8.61856859  4.97407999 23.40000000
   8.61983142  6.39547160 23.40000000
   9.85106859  7.10620000 23.40000000
  12.31401141  8.52759160 23.40000000
   8.61524858  0.70983999 23.40000000
   8.61651142  2.13123159 23.40000000
   9.84774859  2.84195999 23.40000000
   9.84901142  4.26335159 23.40000000
  11.08024858  4.97407999 23.40000000
  11.08151141  6.39547160 23.40000000
  12.31274858  7.10620000 23.40000000
 


--------------------------------------------------------------------------------------------------------


 k-point  1 :   0.0000 0.0000 0.0000  plane waves:  236399
 k-point  2 :   0.2000 0.0000 0.0000  plane waves:  236384
 k-point  3 :   0.4000 0.0000 0.0000  plane waves:  236183
 k-point  4 :   0.0000 0.2000 0.0000  plane waves:  236383
 k-point  5 :   0.2000 0.2000 0.0000  plane waves:  236384
 k-point  6 :   0.4000 0.2000 0.0000  plane waves:  236217
 k-point  7 :  -0.4000 0.2000 0.0000  plane waves:  236260
 k-point  8 :  -0.2000 0.2000 0.0000  plane waves:  236225
 k-point  9 :   0.0000 0.4000 0.0000  plane waves:  236213
 k-point 10 :   0.2000 0.4000 0.0000  plane waves:  236205
 k-point 11 :   0.4000 0.4000 0.0000  plane waves:  236198
 k-point 12 :  -0.4000 0.4000 0.0000  plane waves:  236260
 k-point 13 :  -0.2000 0.4000 0.0000  plane waves:  236256

 maximum and minimum number of plane-waves per node :     29637    29480

 maximum number of plane-waves:    236399
 maximum index in each direction: 
   IXMAX=   23   IYMAX=   23   IZMAX=  118
   IXMIN=  -23   IYMIN=  -23   IZMIN= -118


 parallel 3D FFT for wavefunctions:
    minimum data exchange during FFTs selected (reduces bandwidth)
 parallel 3D FFT for charge:
    minimum data exchange during FFTs selected (reduces bandwidth)


 total amount of memory used by VASP MPI-rank0   254785. kBytes
=======================================================================

   base      :      30000. kBytes
   nonl-proj :      39787. kBytes
   fftplans  :      41100. kBytes
   grid      :      57575. kBytes
   one-center:         12. kBytes
   wavefun   :      86311. kBytes
 
     INWAV:  cpu time    0.0001: real time    0.0002
 Broyden mixing: mesh for mixing (old mesh)
   NGX = 47   NGY = 47   NGZ =237
  (NGX  =192   NGY  =192   NGZ  =960)
  gives a total of 523533 points

 initial charge density was supplied:
 charge density of overlapping atoms calculated
 number of electron     128.0000000 magnetization 
 keeping initial charge density in first step


--------------------------------------------------------------------------------------------------------


 Maximum index for augmentation-charges          576 (set IRDMAX)


--------------------------------------------------------------------------------------------------------


 First call to EWALD:  gamma=   0.110
 Maximum number of real-space cells 5x 5x 1
 Maximum number of reciprocal cells 2x 2x 7

    FEWALD:  cpu time    0.0014: real time    0.0014


--------------------------------------- Iteration      1(   1)  ---------------------------------------


    POTLOK:  cpu time    0.4005: real time    0.4089
    SETDIJ:  cpu time    0.0028: real time    0.0029
     EDDAV:  cpu time   29.8112: real time   29.8853
 BZINTS: Fermi energy:  5.505569;128.000000 electrons
         Band energy:-394.944467;  BLOECHL correction: -0.024427
       DOS:  cpu time    0.0069: real time    0.0069
    --------------------------------------------
      LOOP:  cpu time   30.2214: real time   30.3040

 eigenvalue-minimisations  :  2520
 total energy-change (2. order) : 0.1519721E+04  (-0.4447034E+04)
 number of electron     128.0000000 magnetization 
 augmentation part      128.0000000 magnetization 

 Free energy of the ion-electron system (eV)
  ---------------------------------------------------
  alpha Z        PSCENC =        20.03350481
  Ewald energy   TEWEN  =     64931.24921881
  -Hartree energ DENC   =    -68149.47177836
  -exchange      EXHF   =         0.00000000
  -V(xc)+E(xc)   XCENC  =       422.12262858
  PAW double counting   =      3472.70548416    -3490.92647004
  entropy T*S    EENTRO =         0.00000000
  eigenvalues    EBANDS =      -394.94446684
  atomic energy  EATOM  =      4708.95331268
  Solvation  Ediel_sol  =         0.00000000
  ---------------------------------------------------
  free energy    TOTEN  =      1519.72143380 eV

  energy without entropy =     1519.72143380  energy(sigma->0) =     1519.72143380


--------------------------------------------------------------------------------------------------------




--------------------------------------- Iteration      1(   2)  ---------------------------------------


     EDDAV:  cpu time   41.3510: real time   41.6529
 BZINTS: Fermi energy:  0.518905;128.000000 electrons
         Band energy:***********;  BLOECHL correction: -0.062778
       DOS:  cpu time    0.0071: real time    0.0071
    --------------------------------------------
      LOOP:  cpu time   41.3581: real time   41.6601

 eigenvalue-minimisations  :  3696
 total energy-change (2. order) :-0.1329009E+04  (-0.1229443E+04)
 number of electron     128.0000000 magnetization 
 augmentation part      128.0000000 magnetization 

 Free energy of the ion-electron system (eV)
  ---------------------------------------------------
  alpha Z        PSCENC =        20.03350481
  Ewald energy   TEWEN  =     64931.24921881
  -Hartree energ DENC   =    -68149.47177836
  -exchange      EXHF   =         0.00000000
  -V(xc)+E(xc)   XCENC  =       422.12262858
  PAW double counting   =      3472.70548416    -3490.92647004
  entropy T*S    EENTRO =         0.00000000
  eigenvalues    EBANDS =     -1723.95340550
  atomic energy  EATOM  =      4708.95331268
  Solvation  Ediel_sol  =         0.00000000
  ---------------------------------------------------
  free energy    TOTEN  =       190.71249514 eV

  energy without entropy =      190.71249514  energy(sigma->0) =      190.71249514


--------------------------------------------------------------------------------------------------------




--------------------------------------- Iteration      1(   3)  ---------------------------------------


     EDDAV:  cpu time   32.7389: real time   32.8239
 BZINTS: Fermi energy: -7.105278;128.000000 electrons
         Band energy:***********;  BLOECHL correction:  0.000000
       DOS:  cpu time    0.0016: real time    0.0016
    --------------------------------------------
      LOOP:  cpu time   32.7405: real time   32.8254

 eigenvalue-minimisations  :  2784
 total energy-change (2. order) :-0.4720758E+03  (-0.4671680E+03)
 number of electron     128.0000000 magnetization 
 augmentation part      128.0000000 magnetization 

 Free energy of the ion-electron system (eV)
  ---------------------------------------------------
  alpha Z        PSCENC =        20.03350481
  Ewald energy   TEWEN  =     64931.24921881
  -Hartree energ DENC   =    -68149.47177836
  -exchange      EXHF   =         0.00000000
  -V(xc)+E(xc)   XCENC  =       422.12262858
  PAW double counting   =      3472.70548416    -3490.92647004
  entropy T*S    EENTRO =         0.00000000
  eigenvalues    EBANDS =     -2196.02923395
  atomic energy  EATOM  =      4708.95331268
  Solvation  Ediel_sol  =         0.00000000
  ---------------------------------------------------
  free energy    TOTEN  =      -281.36333331 eV

  energy without entropy =     -281.36333331  energy(sigma->0) =     -281.36333331


--------------------------------------------------------------------------------------------------------




--------------------------------------- Iteration      1(   4)  ---------------------------------------


     EDDAV:  cpu time   32.9903: real time   33.0816
 BZINTS: Fermi energy: -7.918483;128.000000 electrons
         Band energy:***********;  BLOECHL correction:  0.000000
       DOS:  cpu time    0.0014: real time    0.0014
    --------------------------------------------
      LOOP:  cpu time   32.9917: real time   33.0830

 eigenvalue-minimisations  :  2832
 total energy-change (2. order) :-0.3409687E+02  (-0.3383566E+02)
 number of electron     128.0000000 magnetization 
 augmentation part      128.0000000 magnetization 

 Free energy of the ion-electron system (eV)
  ---------------------------------------------------
  alpha Z        PSCENC =        20.03350481
  Ewald energy   TEWEN  =     64931.24921881
  -Hartree energ DENC   =    -68149.47177836
  -exchange      EXHF   =         0.00000000
  -V(xc)+E(xc)   XCENC  =       422.12262858
  PAW double counting   =      3472.70548416    -3490.92647004
  entropy T*S    EENTRO =         0.00000000
  eigenvalues    EBANDS =     -2230.12610314
  atomic energy  EATOM  =      4708.95331268
  Solvation  Ediel_sol  =         0.00000000
  ---------------------------------------------------
  free energy    TOTEN  =      -315.46020250 eV

  energy without entropy =     -315.46020250  energy(sigma->0) =     -315.46020250


--------------------------------------------------------------------------------------------------------




--------------------------------------- Iteration      1(   5)  ---------------------------------------


     EDDAV:  cpu time   33.1448: real time   33.2348
 BZINTS: Fermi energy: -7.907399;128.000000 electrons
         Band energy:***********;  BLOECHL correction:  0.000000
       DOS:  cpu time    0.0014: real time    0.0014
    CHARGE:  cpu time    2.0457: real time    2.0617
    MIXING:  cpu time    0.0111: real time    0.0112
    --------------------------------------------
      LOOP:  cpu time   35.2029: real time   35.3092

 eigenvalue-minimisations  :  2868
 total energy-change (2. order) :-0.6864558E+00  (-0.6807350E+00)
 number of electron     127.9999991 magnetization 
 augmentation part        3.4018765 magnetization 

 Broyden mixing:
  rms(total) = 0.25348E+01    rms(broyden)= 0.25347E+01
  rms(prec ) = 0.25638E+01
  weight for this iteration     100.00

 Free energy of the ion-electron system (eV)
  ---------------------------------------------------
  alpha Z        PSCENC =        20.03350481
  Ewald energy   TEWEN  =     64931.24921881
  -Hartree energ DENC   =    -68149.47177836
  -exchange      EXHF   =         0.00000000
  -V(xc)+E(xc)   XCENC  =       422.12262858
  PAW double counting   =      3472.70548416    -3490.92647004
  entropy T*S    EENTRO =         0.00000000
  eigenvalues    EBANDS =     -2230.81255891
  atomic energy  EATOM  =      4708.95331268
  Solvation  Ediel_sol  =         0.00000000
  ---------------------------------------------------
  free energy    TOTEN  =      -316.14665827 eV

  energy without entropy =     -316.14665827  energy(sigma->0) =     -316.14665827


--------------------------------------------------------------------------------------------------------




--------------------------------------- Iteration      1(   6)  ---------------------------------------


    POTLOK:  cpu time    0.3392: real time    0.3435
    SETDIJ:  cpu time    0.0024: real time    0.0024
     EDDAV:  cpu time   31.2638: real time   31.3480
 BZINTS: Fermi energy: -6.742185;128.000000 electrons
         Band energy:***********;  BLOECHL correction:  0.000000
       DOS:  cpu time    0.0014: real time    0.0014
    CHARGE:  cpu time    1.9979: real time    2.0030
    MIXING:  cpu time    0.0121: real time    0.0122
    --------------------------------------------
      LOOP:  cpu time   33.6168: real time   33.7105

 eigenvalue-minimisations  :  2652
 total energy-change (2. order) : 0.1475576E+02  (-0.1347916E+01)
 number of electron     127.9999991 magnetization 
 augmentation part        3.2695388 magnetization 

 Broyden mixing:
  rms(total) = 0.14954E+01    rms(broyden)= 0.14954E+01
  rms(prec ) = 0.15100E+01
  weight for this iteration     100.00

 eigenvalues of (default mixing * dielectric matrix)
  average eigenvalue GAMMA=   2.2219
  2.2219

 Free energy of the ion-electron system (eV)
  ---------------------------------------------------
  alpha Z        PSCENC =        20.03350481
  Ewald energy   TEWEN  =     64931.24921881
  -Hartree energ DENC   =    -68334.89178250
  -exchange      EXHF   =         0.00000000
  -V(xc)+E(xc)   XCENC  =       429.81472716
  PAW double counting   =      6407.77780604    -6428.36076733
  entropy T*S    EENTRO =         0.00000000
  eigenvalues    EBANDS =     -2035.96691470
  atomic energy  EATOM  =      4708.95331268
  Solvation  Ediel_sol  =         0.00000000
  ---------------------------------------------------
  free energy    TOTEN  =      -301.39089504 eV

  energy without entropy =     -301.39089504  energy(sigma->0) =     -301.39089504


--------------------------------------------------------------------------------------------------------




--------------------------------------- Iteration      1(   7)  ---------------------------------------


    POTLOK:  cpu time    0.3372: real time    0.3418
    SETDIJ:  cpu time    0.0022: real time    0.0022
     EDDAV:  cpu time   29.4536: real time   29.5500
 BZINTS: Fermi energy: -5.177754;128.000000 electrons
         Band energy:***********;  BLOECHL correction:  0.000000
       DOS:  cpu time    0.0014: real time    0.0014
    CHARGE:  cpu time    1.9648: real time    1.9698
    MIXING:  cpu time    0.0113: real time    0.0113
    --------------------------------------------
      LOOP:  cpu time   31.7704: real time   31.8763

 eigenvalue-minimisations  :  2448
 total energy-change (2. order) : 0.5771269E+01  (-0.1944900E+01)
 number of electron     127.9999991 magnetization 
 augmentation part        3.0892225 magnetization 

 Broyden mixing:
  rms(total) = 0.38456E+00    rms(broyden)= 0.38456E+00
  rms(prec ) = 0.38709E+00
  weight for this iteration     100.00

 eigenvalues of (default mixing * dielectric matrix)
  average eigenvalue GAMMA=   2.2811
  2.2811  2.2811

 Free energy of the ion-electron system (eV)
  ---------------------------------------------------
  alpha Z        PSCENC =        20.03350481
  Ewald energy   TEWEN  =     64931.24921881
  -Hartree energ DENC   =    -68590.93675536
  -exchange      EXHF   =         0.00000000
  -V(xc)+E(xc)   XCENC  =       440.32989034
  PAW double counting   =     12223.22240202   -12245.96019051
  entropy T*S    EENTRO =         0.00000000
  eigenvalues    EBANDS =     -1782.51100834
  atomic energy  EATOM  =      4708.95331268
  Solvation  Ediel_sol  =         0.00000000
  ---------------------------------------------------
  free energy    TOTEN  =      -295.61962554 eV

  energy without entropy =     -295.61962554  energy(sigma->0) =     -295.61962554


--------------------------------------------------------------------------------------------------------




--------------------------------------- Iteration      1(   8)  ---------------------------------------


    POTLOK:  cpu time    0.3411: real time    0.3499
    SETDIJ:  cpu time    0.0022: real time    0.0022
     EDDAV:  cpu time   32.4153: real time   32.4994
 BZINTS: Fermi energy: -4.892778;128.000000 electrons
         Band energy:***********;  BLOECHL correction:  0.000000
       DOS:  cpu time    0.0016: real time    0.0016
    CHARGE:  cpu time    1.9429: real time    1.9479
    MIXING:  cpu time    0.0114: real time    0.0114
    --------------------------------------------
      LOOP:  cpu time   34.7144: real time   34.8124

 eigenvalue-minimisations  :  2808
 total energy-change (2. order) : 0.1088823E+00  (-0.4493805E-01)
 number of electron     127.9999991 magnetization 
 augmentation part        3.0857349 magnetization 

 Broyden mixing:
  rms(total) = 0.43015E-01    rms(broyden)= 0.43014E-01
  rms(prec ) = 0.49793E-01
  weight for this iteration     100.00

 eigenvalues of (default mixing * dielectric matrix)
  average eigenvalue GAMMA=   1.8622
  1.1570  2.0308  2.3989

 Free energy of the ion-electron system (eV)
  ---------------------------------------------------
  alpha Z        PSCENC =        20.03350481
  Ewald energy   TEWEN  =     64931.24921881
  -Hartree energ DENC   =    -68624.87069221
  -exchange      EXHF   =         0.00000000
  -V(xc)+E(xc)   XCENC  =       440.17727038
  PAW double counting   =     13533.25414862   -13555.00075528
  entropy T*S    EENTRO =         0.00000000
  eigenvalues    EBANDS =     -1749.30675101
  atomic energy  EATOM  =      4708.95331268
  Solvation  Ediel_sol  =         0.00000000
  ---------------------------------------------------
  free energy    TOTEN  =      -295.51074320 eV

  energy without entropy =     -295.51074320  energy(sigma->0) =     -295.51074320


--------------------------------------------------------------------------------------------------------




--------------------------------------- Iteration      1(   9)  ---------------------------------------


    POTLOK:  cpu time    0.3423: real time    0.3510
    SETDIJ:  cpu time    0.0021: real time    0.0021
     EDDAV:  cpu time   31.9928: real time   32.0744
 BZINTS: Fermi energy: -4.728729;128.000000 electrons
         Band energy:***********;  BLOECHL correction:  0.000000
       DOS:  cpu time    0.0016: real time    0.0016
    CHARGE:  cpu time    1.9965: real time    2.0016
    MIXING:  cpu time    0.0117: real time    0.0117
    --------------------------------------------
      LOOP:  cpu time   34.3469: real time   34.4424

 eigenvalue-minimisations  :  2748
 total energy-change (2. order) : 0.2736679E-01  (-0.3504086E-02)
 number of electron     127.9999991 magnetization 
 augmentation part        3.0780330 magnetization 

 Broyden mixing:
  rms(total) = 0.28282E-01    rms(broyden)= 0.28282E-01
  rms(prec ) = 0.34896E-01
  weight for this iteration     100.00

 eigenvalues of (default mixing * dielectric matrix)
  average eigenvalue GAMMA=   2.2387
  1.0128  3.2473  2.7664  1.9283

 Free energy of the ion-electron system (eV)
  ---------------------------------------------------
  alpha Z        PSCENC =        20.03350481
  Ewald energy   TEWEN  =     64931.24921881
  -Hartree energ DENC   =    -68643.93613556
  -exchange      EXHF   =         0.00000000
  -V(xc)+E(xc)   XCENC  =       440.58443830
  PAW double counting   =     13585.35033718   -13607.17141585
  entropy T*S    EENTRO =         0.00000000
  eigenvalues    EBANDS =     -1730.54663678
  atomic energy  EATOM  =      4708.95331268
  Solvation  Ediel_sol  =         0.00000000
  ---------------------------------------------------
  free energy    TOTEN  =      -295.48337641 eV

  energy without entropy =     -295.48337641  energy(sigma->0) =     -295.48337641


--------------------------------------------------------------------------------------------------------




--------------------------------------- Iteration      1(  10)  ---------------------------------------


    POTLOK:  cpu time    0.3399: real time    0.3447
    SETDIJ:  cpu time    0.0023: real time    0.0023
     EDDAV:  cpu time   28.2539: real time   28.3260
 BZINTS: Fermi energy: -4.391822;128.000000 electrons
         Band energy:***********;  BLOECHL correction:  0.000000
       DOS:  cpu time    0.0014: real time    0.0014
    CHARGE:  cpu time    1.9990: real time    2.0041
    MIXING:  cpu time    0.0119: real time    0.0119
    --------------------------------------------
      LOOP:  cpu time   30.6083: real time   30.6904

 eigenvalue-minimisations  :  2328
 total energy-change (2. order) : 0.2970266E-01  (-0.3277580E-02)
 number of electron     127.9999991 magnetization 
 augmentation part        3.0739986 magnetization 

 Broyden mixing:
  rms(total) = 0.16850E-01    rms(broyden)= 0.16850E-01
  rms(prec ) = 0.19268E-01
  weight for this iteration     100.00

 eigenvalues of (default mixing * dielectric matrix)
  average eigenvalue GAMMA=   2.0617
  3.5862  2.1626  2.1626  1.0167  1.3805

 Free energy of the ion-electron system (eV)
  ---------------------------------------------------
  alpha Z        PSCENC =        20.03350481
  Ewald energy   TEWEN  =     64931.24921881
  -Hartree energ DENC   =    -68693.57378076
  -exchange      EXHF   =         0.00000000
  -V(xc)+E(xc)   XCENC  =       441.04884110
  PAW double counting   =     13468.12641984   -13489.87587006
  entropy T*S    EENTRO =         0.00000000
  eigenvalues    EBANDS =     -1681.41532016
  atomic energy  EATOM  =      4708.95331268
  Solvation  Ediel_sol  =         0.00000000
  ---------------------------------------------------
  free energy    TOTEN  =      -295.45367375 eV

  energy without entropy =     -295.45367375  energy(sigma->0) =     -295.45367375


--------------------------------------------------------------------------------------------------------




--------------------------------------- Iteration      1(  11)  ---------------------------------------


    POTLOK:  cpu time    0.3398: real time    0.3446
    SETDIJ:  cpu time    0.0022: real time    0.0022
     EDDAV:  cpu time   28.9543: real time   29.0286
 BZINTS: Fermi energy: -4.308895;128.000000 electrons
         Band energy:***********;  BLOECHL correction:  0.000000
       DOS:  cpu time    0.0014: real time    0.0014
    CHARGE:  cpu time    1.9844: real time    1.9896
    MIXING:  cpu time    0.0123: real time    0.0124
    --------------------------------------------
      LOOP:  cpu time   31.2944: real time   31.3787

 eigenvalue-minimisations  :  2412
 total energy-change (2. order) :-0.3201024E-02  (-0.4271080E-03)
 number of electron     127.9999991 magnetization 
 augmentation part        3.0713023 magnetization 

 Broyden mixing:
  rms(total) = 0.11962E-01    rms(broyden)= 0.11962E-01
  rms(prec ) = 0.13916E-01
  weight for this iteration     100.00

 eigenvalues of (default mixing * dielectric matrix)
  average eigenvalue GAMMA=   2.4979
  5.7695  2.7977  2.4793  1.9941  0.9734  0.9734

 Free energy of the ion-electron system (eV)
  ---------------------------------------------------
  alpha Z        PSCENC =        20.03350481
  Ewald energy   TEWEN  =     64931.24921881
  -Hartree energ DENC   =    -68705.72628310
  -exchange      EXHF   =         0.00000000
  -V(xc)+E(xc)   XCENC  =       441.18130460
  PAW double counting   =     13578.29266846   -13600.05258102
  entropy T*S    EENTRO =         0.00000000
  eigenvalues    EBANDS =     -1669.38802000
  atomic energy  EATOM  =      4708.95331268
  Solvation  Ediel_sol  =         0.00000000
  ---------------------------------------------------
  free energy    TOTEN  =      -295.45687477 eV

  energy without entropy =     -295.45687477  energy(sigma->0) =     -295.45687477


--------------------------------------------------------------------------------------------------------




--------------------------------------- Iteration      1(  12)  ---------------------------------------


    POTLOK:  cpu time    0.3365: real time    0.3402
    SETDIJ:  cpu time    0.0025: real time    0.0025
     EDDAV:  cpu time   28.0699: real time   28.1436
 BZINTS: Fermi energy: -4.140467;128.000000 electrons
         Band energy:***********;  BLOECHL correction:  0.000000
       DOS:  cpu time    0.0015: real time    0.0015
    CHARGE:  cpu time    2.0038: real time    2.0089
    MIXING:  cpu time    0.0124: real time    0.0124
    --------------------------------------------
      LOOP:  cpu time   30.4266: real time   30.5092

 eigenvalue-minimisations  :  2316
 total energy-change (2. order) :-0.5627673E-02  (-0.3097097E-03)
 number of electron     127.9999991 magnetization 
 augmentation part        3.0707380 magnetization 

 Broyden mixing:
  rms(total) = 0.37842E-02    rms(broyden)= 0.37842E-02
  rms(prec ) = 0.47688E-02
  weight for this iteration     100.00

 eigenvalues of (default mixing * dielectric matrix)
  average eigenvalue GAMMA=   2.3038
  5.6405  2.8739  2.5037  1.9769  1.1766  0.9773  0.9773

 Free energy of the ion-electron system (eV)
  ---------------------------------------------------
  alpha Z        PSCENC =        20.03350481
  Ewald energy   TEWEN  =     64931.24921881
  -Hartree energ DENC   =    -68726.39201403
  -exchange      EXHF   =         0.00000000
  -V(xc)+E(xc)   XCENC  =       441.21543000
  PAW double counting   =     13520.74587454   -13542.50870406
  entropy T*S    EENTRO =         0.00000000
  eigenvalues    EBANDS =     -1648.75912519
  atomic energy  EATOM  =      4708.95331268
  Solvation  Ediel_sol  =         0.00000000
  ---------------------------------------------------
  free energy    TOTEN  =      -295.46250245 eV

  energy without entropy =     -295.46250245  energy(sigma->0) =     -295.46250245


--------------------------------------------------------------------------------------------------------




--------------------------------------- Iteration      1(  13)  ---------------------------------------


    POTLOK:  cpu time    0.3392: real time    0.3422
    SETDIJ:  cpu time    0.0021: real time    0.0021
     EDDAV:  cpu time   29.9272: real time   30.0036
 BZINTS: Fermi energy: -4.102912;128.000000 electrons
         Band energy:***********;  BLOECHL correction:  0.000000
       DOS:  cpu time    0.0014: real time    0.0014
    CHARGE:  cpu time    1.9951: real time    2.0002
    MIXING:  cpu time    0.0134: real time    0.0135
    --------------------------------------------
      LOOP:  cpu time   32.2784: real time   32.3629

 eigenvalue-minimisations  :  2532
 total energy-change (2. order) :-0.4830536E-02  (-0.2187501E-04)
 number of electron     127.9999991 magnetization 
 augmentation part        3.0705786 magnetization 

 Broyden mixing:
  rms(total) = 0.27457E-02    rms(broyden)= 0.27457E-02
  rms(prec ) = 0.35555E-02
  weight for this iteration     100.00

 eigenvalues of (default mixing * dielectric matrix)
  average eigenvalue GAMMA=   2.6242
  7.1523  3.9069  2.6450  2.3833  1.9981  1.0291  0.9755  0.9038

 Free energy of the ion-electron system (eV)
  ---------------------------------------------------
  alpha Z        PSCENC =        20.03350481
  Ewald energy   TEWEN  =     64931.24921881
  -Hartree energ DENC   =    -68728.93993612
  -exchange      EXHF   =         0.00000000
  -V(xc)+E(xc)   XCENC  =       441.21459243
  PAW double counting   =     13520.86304235   -13542.62349102
  entropy T*S    EENTRO =         0.00000000
  eigenvalues    EBANDS =     -1646.21757692
  atomic energy  EATOM  =      4708.95331268
  Solvation  Ediel_sol  =         0.00000000
  ---------------------------------------------------
  free energy    TOTEN  =      -295.46733298 eV

  energy without entropy =     -295.46733298  energy(sigma->0) =     -295.46733298


--------------------------------------------------------------------------------------------------------




--------------------------------------- Iteration      1(  14)  ---------------------------------------


    POTLOK:  cpu time    0.3341: real time    0.3389
    SETDIJ:  cpu time    0.0021: real time    0.0021
     EDDAV:  cpu time   27.1135: real time   27.1838
 BZINTS: Fermi energy: -4.062877;128.000000 electrons
         Band energy:***********;  BLOECHL correction:  0.000000
       DOS:  cpu time    0.0014: real time    0.0014
    CHARGE:  cpu time    1.9392: real time    1.9442
    MIXING:  cpu time    0.0134: real time    0.0134
    --------------------------------------------
      LOOP:  cpu time   29.4036: real time   29.4839

 eigenvalue-minimisations  :  2220
 total energy-change (2. order) :-0.9255297E-02  (-0.1080453E-03)
 number of electron     127.9999991 magnetization 
 augmentation part        3.0704951 magnetization 

 Broyden mixing:
  rms(total) = 0.11477E-02    rms(broyden)= 0.11477E-02
  rms(prec ) = 0.13878E-02
  weight for this iteration     100.00

 eigenvalues of (default mixing * dielectric matrix)
  average eigenvalue GAMMA=   2.5698
  7.4841  4.3020  2.5237  2.5237  2.0015  0.9618  0.9618  1.1848  1.1848

 Free energy of the ion-electron system (eV)
  ---------------------------------------------------
  alpha Z        PSCENC =        20.03350481
  Ewald energy   TEWEN  =     64931.24921881
  -Hartree energ DENC   =    -68735.31334362
  -exchange      EXHF   =         0.00000000
  -V(xc)+E(xc)   XCENC  =       441.21591296
  PAW double counting   =     13522.15229482   -13543.90752477
  entropy T*S    EENTRO =         0.00000000
  eigenvalues    EBANDS =     -1639.85996397
  atomic energy  EATOM  =      4708.95331268
  Solvation  Ediel_sol  =         0.00000000
  ---------------------------------------------------
  free energy    TOTEN  =      -295.47658828 eV

  energy without entropy =     -295.47658828  energy(sigma->0) =     -295.47658828


--------------------------------------------------------------------------------------------------------




--------------------------------------- Iteration      1(  15)  ---------------------------------------


    POTLOK:  cpu time    0.3331: real time    0.3487
    SETDIJ:  cpu time    0.0022: real time    0.0022
     EDDAV:  cpu time   28.5020: real time   28.5821
 BZINTS: Fermi energy: -4.068122;128.000000 electrons
         Band energy:***********;  BLOECHL correction:  0.000000
       DOS:  cpu time    0.0014: real time    0.0014
    CHARGE:  cpu time    1.9437: real time    1.9487
    MIXING:  cpu time    0.0144: real time    0.0144
    --------------------------------------------
      LOOP:  cpu time   30.7968: real time   30.8975

 eigenvalue-minimisations  :  2376
 total energy-change (2. order) :-0.1581762E-02  (-0.7404924E-05)
 number of electron     127.9999991 magnetization 
 augmentation part        3.0704038 magnetization 

 Broyden mixing:
  rms(total) = 0.78305E-03    rms(broyden)= 0.78305E-03
  rms(prec ) = 0.93418E-03
  weight for this iteration     100.00

 eigenvalues of (default mixing * dielectric matrix)
  average eigenvalue GAMMA=   2.6138
  8.1103  4.6489  2.7338  2.4831  2.0279  2.0279  1.2347  1.0022  0.9788  0.8908

 Free energy of the ion-electron system (eV)
  ---------------------------------------------------
  alpha Z        PSCENC =        20.03350481
  Ewald energy   TEWEN  =     64931.24921881
  -Hartree energ DENC   =    -68736.20923578
  -exchange      EXHF   =         0.00000000
  -V(xc)+E(xc)   XCENC  =       441.21446873
  PAW double counting   =     13518.26608494   -13540.02240612
  entropy T*S    EENTRO =         0.00000000
  eigenvalues    EBANDS =     -1638.96311810
  atomic energy  EATOM  =      4708.95331268
  Solvation  Ediel_sol  =         0.00000000
  ---------------------------------------------------
  free energy    TOTEN  =      -295.47817004 eV

  energy without entropy =     -295.47817004  energy(sigma->0) =     -295.47817004


--------------------------------------------------------------------------------------------------------




--------------------------------------- Iteration      1(  16)  ---------------------------------------


    POTLOK:  cpu time    0.3318: real time    0.3357
    SETDIJ:  cpu time    0.0023: real time    0.0023
     EDDAV:  cpu time   28.9207: real time   28.9963
 BZINTS: Fermi energy: -4.075447;128.000000 electrons
         Band energy:***********;  BLOECHL correction:  0.000000
       DOS:  cpu time    0.0014: real time    0.0014
    CHARGE:  cpu time    1.9408: real time    1.9458
    MIXING:  cpu time    0.0140: real time    0.0140
    --------------------------------------------
      LOOP:  cpu time   31.2110: real time   31.2955

 eigenvalue-minimisations  :  2424
 total energy-change (2. order) :-0.1140046E-02  (-0.4381155E-05)
 number of electron     127.9999991 magnetization 
 augmentation part        3.0703901 magnetization 

 Broyden mixing:
  rms(total) = 0.41800E-03    rms(broyden)= 0.41800E-03
  rms(prec ) = 0.50361E-03
  weight for this iteration     100.00

 eigenvalues of (default mixing * dielectric matrix)
  average eigenvalue GAMMA=   2.7221
  8.5199  5.4097  3.3571  2.7016  2.4797  1.9634  0.9307  0.9530  1.0233  1.3024
  1.3024

 Free energy of the ion-electron system (eV)
  ---------------------------------------------------
  alpha Z        PSCENC =        20.03350481
  Ewald energy   TEWEN  =     64931.24921881
  -Hartree energ DENC   =    -68737.00273014
  -exchange      EXHF   =         0.00000000
  -V(xc)+E(xc)   XCENC  =       441.21458677
  PAW double counting   =     13519.19915790   -13540.95479796
  entropy T*S    EENTRO =         0.00000000
  eigenvalues    EBANDS =     -1638.17156295
  atomic energy  EATOM  =      4708.95331268
  Solvation  Ediel_sol  =         0.00000000
  ---------------------------------------------------
  free energy    TOTEN  =      -295.47931009 eV

  energy without entropy =     -295.47931009  energy(sigma->0) =     -295.47931009


--------------------------------------------------------------------------------------------------------




--------------------------------------- Iteration      1(  17)  ---------------------------------------


    POTLOK:  cpu time    0.3272: real time    0.3502
    SETDIJ:  cpu time    0.0020: real time    0.0020
     EDDAV:  cpu time   28.4809: real time   28.5536
 BZINTS: Fermi energy: -4.020693;128.000000 electrons
         Band energy:***********;  BLOECHL correction:  0.000000
       DOS:  cpu time    0.0016: real time    0.0016
    CHARGE:  cpu time    1.9893: real time    1.9944
    MIXING:  cpu time    0.0150: real time    0.0150
    --------------------------------------------
      LOOP:  cpu time   30.8160: real time   30.9167

 eigenvalue-minimisations  :  2364
 total energy-change (2. order) :-0.6032839E-03  (-0.2706993E-05)
 number of electron     127.9999991 magnetization 
 augmentation part        3.0703475 magnetization 

 Broyden mixing:
  rms(total) = 0.27823E-03    rms(broyden)= 0.27823E-03
  rms(prec ) = 0.30915E-03
  weight for this iteration     100.00

 eigenvalues of (default mixing * dielectric matrix)
  average eigenvalue GAMMA=   2.6485
  8.7256  5.6061  3.5345  2.6126  2.4463  1.9956  1.4744  1.4744  1.0437  0.9765
  0.9765  0.9159

 Free energy of the ion-electron system (eV)
  ---------------------------------------------------
  alpha Z        PSCENC =        20.03350481
  Ewald energy   TEWEN  =     64931.24921881
  -Hartree energ DENC   =    -68737.41483112
  -exchange      EXHF   =         0.00000000
  -V(xc)+E(xc)   XCENC  =       441.21534993
  PAW double counting   =     13518.18860428   -13539.94562416
  entropy T*S    EENTRO =         0.00000000
  eigenvalues    EBANDS =     -1637.75944860
  atomic energy  EATOM  =      4708.95331268
  Solvation  Ediel_sol  =         0.00000000
  ---------------------------------------------------
  free energy    TOTEN  =      -295.47991337 eV

  energy without entropy =     -295.47991337  energy(sigma->0) =     -295.47991337


--------------------------------------------------------------------------------------------------------




--------------------------------------- Iteration      1(  18)  ---------------------------------------


    POTLOK:  cpu time    0.3337: real time    0.3398
    SETDIJ:  cpu time    0.0022: real time    0.0022
     EDDAV:  cpu time   26.1788: real time   26.2658
 BZINTS: Fermi energy: -4.022383;128.000000 electrons
         Band energy:***********;  BLOECHL correction:  0.000000
       DOS:  cpu time    0.0015: real time    0.0015
    CHARGE:  cpu time    1.9879: real time    1.9929
    MIXING:  cpu time    0.0147: real time    0.0147
    --------------------------------------------
      LOOP:  cpu time   28.5189: real time   28.6169

 eigenvalue-minimisations  :  2112
 total energy-change (2. order) :-0.1203013E-03  (-0.9014581E-07)
 number of electron     127.9999991 magnetization 
 augmentation part        3.0703583 magnetization 

 Broyden mixing:
  rms(total) = 0.12423E-03    rms(broyden)= 0.12423E-03
  rms(prec ) = 0.15361E-03
  weight for this iteration     100.00

 eigenvalues of (default mixing * dielectric matrix)
  average eigenvalue GAMMA=   2.7421
  8.9001  6.1842  4.0188  2.9915  2.5529  2.4103  1.9868  1.3596  1.3596  1.0219
  0.9737  0.9737  0.9145

 Free energy of the ion-electron system (eV)
  ---------------------------------------------------
  alpha Z        PSCENC =        20.03350481
  Ewald energy   TEWEN  =     64931.24921881
  -Hartree energ DENC   =    -68737.53990807
  -exchange      EXHF   =         0.00000000
  -V(xc)+E(xc)   XCENC  =       441.21453753
  PAW double counting   =     13518.51971607   -13540.27589944
  entropy T*S    EENTRO =         0.00000000
  eigenvalues    EBANDS =     -1637.63451607
  atomic energy  EATOM  =      4708.95331268
  Solvation  Ediel_sol  =         0.00000000
  ---------------------------------------------------
  free energy    TOTEN  =      -295.48003367 eV

  energy without entropy =     -295.48003367  energy(sigma->0) =     -295.48003367


--------------------------------------------------------------------------------------------------------




--------------------------------------- Iteration      1(  19)  ---------------------------------------


    POTLOK:  cpu time    0.3368: real time    0.3384
    SETDIJ:  cpu time    0.0022: real time    0.0022
     EDDAV:  cpu time   25.4218: real time   25.4895
 BZINTS: Fermi energy: -4.025057;128.000000 electrons
         Band energy:***********;  BLOECHL correction:  0.000000
       DOS:  cpu time    0.0015: real time    0.0015
    CHARGE:  cpu time    1.9652: real time    1.9702
    MIXING:  cpu time    0.0164: real time    0.0164
    --------------------------------------------
      LOOP:  cpu time   27.7438: real time   27.8183

 eigenvalue-minimisations  :  2016
 total energy-change (2. order) :-0.1150923E-03  (-0.7173308E-07)
 number of electron     127.9999991 magnetization 
 augmentation part        3.0703623 magnetization 

 Broyden mixing:
  rms(total) = 0.75041E-04    rms(broyden)= 0.75041E-04
  rms(prec ) = 0.85588E-04
  weight for this iteration     100.00

 eigenvalues of (default mixing * dielectric matrix)
  average eigenvalue GAMMA=   2.7185
  9.0526  6.4916  4.4109  3.0641  2.5926  2.4351  2.0109  1.4463  1.4463  1.1711
  0.9170  0.9988  0.9988  1.0230

 Free energy of the ion-electron system (eV)
  ---------------------------------------------------
  alpha Z        PSCENC =        20.03350481
  Ewald energy   TEWEN  =     64931.24921881
  -Hartree energ DENC   =    -68737.66835938
  -exchange      EXHF   =         0.00000000
  -V(xc)+E(xc)   XCENC  =       441.21410367
  PAW double counting   =     13518.80343740   -13540.55945291
  entropy T*S    EENTRO =         0.00000000
  eigenvalues    EBANDS =     -1637.50591384
  atomic energy  EATOM  =      4708.95331268
  Solvation  Ediel_sol  =         0.00000000
  ---------------------------------------------------
  free energy    TOTEN  =      -295.48014876 eV

  energy without entropy =     -295.48014876  energy(sigma->0) =     -295.48014876


--------------------------------------------------------------------------------------------------------




--------------------------------------- Iteration      1(  20)  ---------------------------------------


    POTLOK:  cpu time    0.3393: real time    0.3423
    SETDIJ:  cpu time    0.0021: real time    0.0021
     EDDAV:  cpu time   21.2178: real time   21.2719
 BZINTS: Fermi energy: -4.025940;128.000000 electrons
         Band energy:***********;  BLOECHL correction:  0.000000
       DOS:  cpu time    0.0015: real time    0.0015
    CHARGE:  cpu time    1.9453: real time    1.9504
    MIXING:  cpu time    0.0154: real time    0.0154
    --------------------------------------------
      LOOP:  cpu time   23.5214: real time   23.5836

 eigenvalue-minimisations  :  1548
 total energy-change (2. order) :-0.2746514E-04  (-0.4631898E-08)
 number of electron     127.9999991 magnetization 
 augmentation part        3.0703594 magnetization 

 Broyden mixing:
  rms(total) = 0.33962E-04    rms(broyden)= 0.33962E-04
  rms(prec ) = 0.42573E-04
  weight for this iteration     100.00

 eigenvalues of (default mixing * dielectric matrix)
  average eigenvalue GAMMA=   2.7447
  9.1516  6.7944  4.7413  3.3941  2.6932  2.4790  2.0590  2.0590  1.4053  1.4053
  1.0953  0.9150  0.9710  0.9710  1.0357

 Free energy of the ion-electron system (eV)
  ---------------------------------------------------
  alpha Z        PSCENC =        20.03350481
  Ewald energy   TEWEN  =     64931.24921881
  -Hartree energ DENC   =    -68737.71401859
  -exchange      EXHF   =         0.00000000
  -V(xc)+E(xc)   XCENC  =       441.21439009
  PAW double counting   =     13518.64290753   -13540.39905461
  entropy T*S    EENTRO =         0.00000000
  eigenvalues    EBANDS =     -1637.46043694
  atomic energy  EATOM  =      4708.95331268
  Solvation  Ediel_sol  =         0.00000000
  ---------------------------------------------------
  free energy    TOTEN  =      -295.48017623 eV

  energy without entropy =     -295.48017623  energy(sigma->0) =     -295.48017623


--------------------------------------------------------------------------------------------------------




--------------------------------------- Iteration      1(  21)  ---------------------------------------


    POTLOK:  cpu time    0.3454: real time    0.3766
    SETDIJ:  cpu time    0.0053: real time    0.0053
     EDDAV:  cpu time   21.4799: real time   21.5347
 BZINTS: Fermi energy: -4.024912;128.000000 electrons
         Band energy:***********;  BLOECHL correction:  0.000000
       DOS:  cpu time    0.0016: real time    0.0016
    CHARGE:  cpu time    1.9566: real time    1.9618
    MIXING:  cpu time    0.0169: real time    0.0170
    --------------------------------------------
      LOOP:  cpu time   23.8057: real time   23.8969

 eigenvalue-minimisations  :  1572
 total energy-change (2. order) :-0.2006256E-04  (-0.5202319E-08)
 number of electron     127.9999991 magnetization 
 augmentation part        3.0703581 magnetization 

 Broyden mixing:
  rms(total) = 0.21213E-04    rms(broyden)= 0.21213E-04
  rms(prec ) = 0.25227E-04
  weight for this iteration     100.00

 eigenvalues of (default mixing * dielectric matrix)
  average eigenvalue GAMMA=   2.7681
  9.2805  7.0657  5.1426  3.5851  2.6979  2.6979  2.4777  1.9923  1.7174  1.3029
  1.3029  0.9136  0.9719  0.9719  1.0328  1.1369

 Free energy of the ion-electron system (eV)
  ---------------------------------------------------
  alpha Z        PSCENC =        20.03350481
  Ewald energy   TEWEN  =     64931.24921881
  -Hartree energ DENC   =    -68737.74563486
  -exchange      EXHF   =         0.00000000
  -V(xc)+E(xc)   XCENC  =       441.21446524
  PAW double counting   =     13518.64342112   -13540.39957007
  entropy T*S    EENTRO =         0.00000000
  eigenvalues    EBANDS =     -1637.42891402
  atomic energy  EATOM  =      4708.95331268
  Solvation  Ediel_sol  =         0.00000000
  ---------------------------------------------------
  free energy    TOTEN  =      -295.48019629 eV

  energy without entropy =     -295.48019629  energy(sigma->0) =     -295.48019629


--------------------------------------------------------------------------------------------------------




--------------------------------------- Iteration      1(  22)  ---------------------------------------


    POTLOK:  cpu time    0.3417: real time    0.3444
    SETDIJ:  cpu time    0.0022: real time    0.0022
     EDDAV:  cpu time   20.8479: real time   20.9063
 BZINTS: Fermi energy: -4.024374;128.000000 electrons
         Band energy:***********;  BLOECHL correction:  0.000000
       DOS:  cpu time    0.0016: real time    0.0016
    CHARGE:  cpu time    1.9801: real time    1.9853
    MIXING:  cpu time    0.0166: real time    0.0166
    --------------------------------------------
      LOOP:  cpu time   23.1901: real time   23.2563

 eigenvalue-minimisations  :  1500
 total energy-change (2. order) :-0.8291889E-05  (-0.1205490E-08)
 number of electron     127.9999991 magnetization 
 augmentation part        3.0703566 magnetization 

 Broyden mixing:
  rms(total) = 0.11892E-04    rms(broyden)= 0.11892E-04
  rms(prec ) = 0.14002E-04
  weight for this iteration     100.00

 eigenvalues of (default mixing * dielectric matrix)
  average eigenvalue GAMMA=   2.7693
  9.3578  7.3979  5.5137  3.9857  2.9748  2.5746  2.4073  1.9936  1.7000  1.7000
  1.2780  1.2780  0.9174  1.0406  0.9913  0.9913  0.9760

 Free energy of the ion-electron system (eV)
  ---------------------------------------------------
  alpha Z        PSCENC =        20.03350481
  Ewald energy   TEWEN  =     64931.24921881
  -Hartree energ DENC   =    -68737.76033475
  -exchange      EXHF   =         0.00000000
  -V(xc)+E(xc)   XCENC  =       441.21451667
  PAW double counting   =     13518.63388834   -13540.39006650
  entropy T*S    EENTRO =         0.00000000
  eigenvalues    EBANDS =     -1637.41424464
  atomic energy  EATOM  =      4708.95331268
  Solvation  Ediel_sol  =         0.00000000
  ---------------------------------------------------
  free energy    TOTEN  =      -295.48020458 eV

  energy without entropy =     -295.48020458  energy(sigma->0) =     -295.48020458


--------------------------------------------------------------------------------------------------------




--------------------------------------- Iteration      1(  23)  ---------------------------------------


    POTLOK:  cpu time    0.3391: real time    0.3429
    SETDIJ:  cpu time    0.0021: real time    0.0021
     EDDAV:  cpu time   20.8598: real time   20.9170
 BZINTS: Fermi energy: -4.023662;128.000000 electrons
         Band energy:***********;  BLOECHL correction:  0.000000
       DOS:  cpu time    0.0016: real time    0.0016
    CHARGE:  cpu time    1.9917: real time    1.9967
    MIXING:  cpu time    0.0169: real time    0.0170
    --------------------------------------------
      LOOP:  cpu time   23.2111: real time   23.2773

 eigenvalue-minimisations  :  1500
 total energy-change (2. order) :-0.3091733E-05  (-0.2972229E-09)
 number of electron     127.9999991 magnetization 
 augmentation part        3.0703561 magnetization 

 Broyden mixing:
  rms(total) = 0.80063E-05    rms(broyden)= 0.80063E-05
  rms(prec ) = 0.91495E-05
  weight for this iteration     100.00

 eigenvalues of (default mixing * dielectric matrix)
  average eigenvalue GAMMA=   2.8358
  9.4446  7.8301  5.8127  4.4485  3.0488  3.0488  2.5591  2.3491  1.9933  1.5604
  1.5604  1.2466  1.2466  0.9156  1.0167  0.9844  0.9844  0.9950

 Free energy of the ion-electron system (eV)
  ---------------------------------------------------
  alpha Z        PSCENC =        20.03350481
  Ewald energy   TEWEN  =     64931.24921881
  -Hartree energ DENC   =    -68737.76626269
  -exchange      EXHF   =         0.00000000
  -V(xc)+E(xc)   XCENC  =       441.21451949
  PAW double counting   =     13518.62158459   -13540.37775538
  entropy T*S    EENTRO =         0.00000000
  eigenvalues    EBANDS =     -1637.40832999
  atomic energy  EATOM  =      4708.95331268
  Solvation  Ediel_sol  =         0.00000000
  ---------------------------------------------------
  free energy    TOTEN  =      -295.48020768 eV

  energy without entropy =     -295.48020768  energy(sigma->0) =     -295.48020768


--------------------------------------------------------------------------------------------------------




--------------------------------------- Iteration      1(  24)  ---------------------------------------


    POTLOK:  cpu time    0.3386: real time    0.3428
    SETDIJ:  cpu time    0.0021: real time    0.0021
     EDDAV:  cpu time   20.2649: real time   20.3165
 BZINTS: Fermi energy: -4.022865;128.000000 electrons
         Band energy:***********;  BLOECHL correction:  0.000000
       DOS:  cpu time    0.0016: real time    0.0016
    CHARGE:  cpu time    1.9839: real time    1.9889
    MIXING:  cpu time    0.0180: real time    0.0180
    --------------------------------------------
      LOOP:  cpu time   22.6091: real time   22.6699

 eigenvalue-minimisations  :  1428
 total energy-change (2. order) :-0.2851199E-05  (-0.6178157E-09)
 number of electron     127.9999991 magnetization 
 augmentation part        3.0703567 magnetization 

 Broyden mixing:
  rms(total) = 0.73353E-05    rms(broyden)= 0.73353E-05
  rms(prec ) = 0.75469E-05
  weight for this iteration     100.00

 eigenvalues of (default mixing * dielectric matrix)
  average eigenvalue GAMMA=   2.7907
  9.4821  8.0501  5.9795  4.6334  3.3174  2.8968  2.5269  2.3453  2.0052  1.6818
  1.6818  1.2779  1.2779  0.9166  1.0217  0.9813  0.9813  0.9935  0.9721

 Free energy of the ion-electron system (eV)
  ---------------------------------------------------
  alpha Z        PSCENC =        20.03350481
  Ewald energy   TEWEN  =     64931.24921881
  -Hartree energ DENC   =    -68737.76717808
  -exchange      EXHF   =         0.00000000
  -V(xc)+E(xc)   XCENC  =       441.21443172
  PAW double counting   =     13518.65491753   -13540.41105812
  entropy T*S    EENTRO =         0.00000000
  eigenvalues    EBANDS =     -1637.40735988
  atomic energy  EATOM  =      4708.95331268
  Solvation  Ediel_sol  =         0.00000000
  ---------------------------------------------------
  free energy    TOTEN  =      -295.48021053 eV

  energy without entropy =     -295.48021053  energy(sigma->0) =     -295.48021053


--------------------------------------------------------------------------------------------------------




--------------------------------------- Iteration      1(  25)  ---------------------------------------


    POTLOK:  cpu time    0.3395: real time    0.3413
    SETDIJ:  cpu time    0.0022: real time    0.0022
     EDDAV:  cpu time   20.7840: real time   20.8374
 BZINTS: Fermi energy: -4.022802;128.000000 electrons
         Band energy:***********;  BLOECHL correction:  0.000000
       DOS:  cpu time    0.0016: real time    0.0016
    CHARGE:  cpu time    1.9845: real time    1.9896
    MIXING:  cpu time    0.0174: real time    0.0175
    --------------------------------------------
      LOOP:  cpu time   23.1292: real time   23.1896

 eigenvalue-minimisations  :  1500
 total energy-change (2. order) :-0.3900441E-06  ( 0.3315644E-09)
 number of electron     127.9999991 magnetization 
 augmentation part        3.0703565 magnetization 

 Broyden mixing:
  rms(total) = 0.29885E-05    rms(broyden)= 0.29885E-05
  rms(prec ) = 0.31901E-05
  weight for this iteration     100.00

 eigenvalues of (default mixing * dielectric matrix)
  average eigenvalue GAMMA=   2.8417
  9.5837  8.3649  6.3182  4.9159  3.8152  2.7711  2.7711  2.4998  2.1770  2.0115
  1.5839  1.5839  1.2395  1.2395  0.9158  1.0722  0.9838  0.9838  1.0016  1.0016

 Free energy of the ion-electron system (eV)
  ---------------------------------------------------
  alpha Z        PSCENC =        20.03350481
  Ewald energy   TEWEN  =     64931.24921881
  -Hartree energ DENC   =    -68737.76853463
  -exchange      EXHF   =         0.00000000
  -V(xc)+E(xc)   XCENC  =       441.21446125
  PAW double counting   =     13518.63941785   -13540.39557109
  entropy T*S    EENTRO =         0.00000000
  eigenvalues    EBANDS =     -1637.40602059
  atomic energy  EATOM  =      4708.95331268
  Solvation  Ediel_sol  =         0.00000000
  ---------------------------------------------------
  free energy    TOTEN  =      -295.48021092 eV

  energy without entropy =     -295.48021092  energy(sigma->0) =     -295.48021092


--------------------------------------------------------------------------------------------------------




--------------------------------------- Iteration      1(  26)  ---------------------------------------


    POTLOK:  cpu time    0.3393: real time    0.3431
    SETDIJ:  cpu time    0.0021: real time    0.0021
     EDDAV:  cpu time   20.1699: real time   20.2216
 BZINTS: Fermi energy: -4.023038;128.000000 electrons
         Band energy:***********;  BLOECHL correction:  0.000000
       DOS:  cpu time    0.0016: real time    0.0015
    CHARGE:  cpu time    1.9724: real time    1.9774
    MIXING:  cpu time    0.0193: real time    0.0194
    --------------------------------------------
      LOOP:  cpu time   22.5045: real time   22.5651

 eigenvalue-minimisations  :  1428
 total energy-change (2. order) :-0.5446800E-06  ( 0.2916789E-09)
 number of electron     127.9999991 magnetization 
 augmentation part        3.0703564 magnetization 

 Broyden mixing:
  rms(total) = 0.16419E-05    rms(broyden)= 0.16419E-05
  rms(prec ) = 0.16959E-05
  weight for this iteration     100.00

 eigenvalues of (default mixing * dielectric matrix)
  average eigenvalue GAMMA=   2.7745
  9.6110  8.4550  6.3587  5.0337  3.7906  2.8871  2.6866  2.4992  2.2256  1.9959
  1.6346  1.6346  1.2702  1.2702  0.9146  1.0098  1.0098  0.9713  0.9713  1.0169
  1.0169

 Free energy of the ion-electron system (eV)
  ---------------------------------------------------
  alpha Z        PSCENC =        20.03350481
  Ewald energy   TEWEN  =     64931.24921881
  -Hartree energ DENC   =    -68737.76972773
  -exchange      EXHF   =         0.00000000
  -V(xc)+E(xc)   XCENC  =       441.21447286
  PAW double counting   =     13518.62835870   -13540.38451461
  entropy T*S    EENTRO =         0.00000000
  eigenvalues    EBANDS =     -1637.40483698
  atomic energy  EATOM  =      4708.95331268
  Solvation  Ediel_sol  =         0.00000000
  ---------------------------------------------------
  free energy    TOTEN  =      -295.48021146 eV

  energy without entropy =     -295.48021146  energy(sigma->0) =     -295.48021146


--------------------------------------------------------------------------------------------------------




--------------------------------------- Iteration      1(  27)  ---------------------------------------


    POTLOK:  cpu time    0.3426: real time    0.3464
    SETDIJ:  cpu time    0.0019: real time    0.0019
     EDDAV:  cpu time   21.5159: real time   21.5800
 BZINTS: Fermi energy: -4.023092;128.000000 electrons
         Band energy:***********;  BLOECHL correction:  0.000000
       DOS:  cpu time    0.0016: real time    0.0016
    --------------------------------------------
      LOOP:  cpu time   21.8619: real time   21.9298

 eigenvalue-minimisations  :  1560
 total energy-change (2. order) :-0.5461879E-07  ( 0.4278457E-09)
 number of electron     127.9999991 magnetization 
 augmentation part        3.0703564 magnetization 

 Free energy of the ion-electron system (eV)
  ---------------------------------------------------
  alpha Z        PSCENC =        20.03350481
  Ewald energy   TEWEN  =     64931.24921881
  -Hartree energ DENC   =    -68737.76952783
  -exchange      EXHF   =         0.00000000
  -V(xc)+E(xc)   XCENC  =       441.21446798
  PAW double counting   =     13518.63052853   -13540.38668431
  entropy T*S    EENTRO =         0.00000000
  eigenvalues    EBANDS =     -1637.40503219
  atomic energy  EATOM  =      4708.95331268
  Solvation  Ediel_sol  =         0.00000000
  ---------------------------------------------------
  free energy    TOTEN  =      -295.48021152 eV

  energy without entropy =     -295.48021152  energy(sigma->0) =     -295.48021152


--------------------------------------------------------------------------------------------------------




 average (electrostatic) potential at core
  the test charge radii are     0.6991
  (the norm of the test charge is              1.0000)
       1 -59.0690       2 -59.0690       3 -59.0690       4 -59.0690       5 -59.0690
       6 -59.0690       7 -59.0690       8 -59.0690       9 -59.0690      10 -59.0690
      11 -59.0690      12 -59.0690      13 -59.0690      14 -59.0690      15 -59.0690
      16 -59.0690      17 -59.0690      18 -59.0690      19 -59.0690      20 -59.0690
      21 -59.0690      22 -59.0690      23 -59.0690      24 -59.0690      25 -59.0690
      26 -59.0690      27 -59.0690      28 -59.0690      29 -59.0690      30 -59.0690
      31 -59.0690      32 -59.0690
 
 
 
 E-fermi :  -4.0231     XC(G=0):  -0.8737     alpha+bet : -0.7638


 k-point     1 :       0.0000    0.0000    0.0000
  band No.  band energies     occupation 
      1     -23.1883      2.00000
      2     -21.7199      2.00000
      3     -21.7199      2.00000
      4     -21.7191      2.00000
      5     -21.7191      2.00000
      6     -21.7178      2.00000
      7     -21.7178      2.00000
      8     -18.8956      2.00000
      9     -18.8956      2.00000
     10     -18.8915      2.00000
     11     -18.8915      2.00000
     12     -18.8891      2.00000
     13     -18.8891      2.00000
     14     -17.9312      2.00000
     15     -17.9263      2.00000
     16     -17.9181      2.00000
     17     -16.8972      2.00000
     18     -16.8970      2.00000
     19     -16.8969      2.00000
     20     -14.1750      2.00000
     21     -14.1750      2.00000
     22     -14.1724      2.00000
     23     -14.1724      2.00000
     24     -14.1679      2.00000
     25     -14.1679      2.00000
     26     -12.6086      2.00000
     27     -12.6086      2.00000
     28     -12.6080      2.00000
     29     -12.6080      2.00000
     30     -12.6077      2.00000
     31     -12.6077      2.00000
     32     -11.2860      2.00000
     33     -11.0706      2.00000
     34     -11.0706      2.00000
     35     -11.0668      2.00000
     36     -11.0668      2.00000
     37     -11.0605      2.00000
     38     -11.0605      2.00000
     39     -10.0678      2.00000
     40     -10.0575      2.00000
     41     -10.0514      2.00000
     42      -9.5530      2.00000
     43      -9.5530      2.00000
     44      -9.5521      2.00000
     45      -9.5521      2.00000
     46      -9.5505      2.00000
     47      -9.5505      2.00000
     48      -8.6926      2.00000
     49      -8.6926      2.00000
     50      -8.6844      2.00000
     51      -8.6844      2.00000
     52      -8.6794      2.00000
     53      -8.6794      2.00000
     54      -6.6699      2.00000
     55      -6.6617      2.00000
     56      -6.3901      2.00000
     57      -6.3901      2.00000
     58      -6.3861      2.00000
     59      -6.3861      2.00000
     60      -6.3838      2.00000
     61      -6.3838      2.00000
     62      -6.0112      2.00000
     63      -6.0074      2.00000
     64      -6.0010      2.00000
     65      -1.9564      0.00000
     66      -1.9557      0.00000
     67      -1.9547      0.00000
     68      -0.8122      0.00000
     69      -0.8122      0.00000
     70      -0.8109      0.00000
     71      -0.8109      0.00000
     72      -0.8087      0.00000
     73      -0.8087      0.00000
     74      -0.3783      0.00000
     75       0.3933      0.00000
[...]
     14     -17.8044      2.00000
     15     -17.3165      2.00000
     16     -16.5600      2.00000
     17     -16.3316      2.00000
     18     -16.3236      2.00000
     19     -16.3171      2.00000
     20     -16.0304      2.00000
     21     -14.8613      2.00000
     22     -14.8550      2.00000
     23     -14.3245      2.00000
     24     -14.3240      2.00000
     25     -14.0654      2.00000
     26     -13.6263      2.00000
     27     -13.6200      2.00000
     28     -12.4893      2.00000
     29     -11.8087      2.00000
     30     -11.8010      2.00000
     31     -11.5722      2.00000
     32     -11.5635      2.00000
     33     -10.7945      2.00000
     34     -10.7852      2.00000
     35     -10.7852      2.00000
     36     -10.5642      2.00000
     37     -10.5545      2.00000
     38     -10.4365      2.00000
     39     -10.2672      2.00000
     40     -10.2575      2.00000
     41     -10.2472      2.00000
     42     -10.2378      2.00000
     43      -9.8922      2.00000
     44      -9.8920      2.00000
     45      -9.5366      2.00000
     46      -9.4094      2.00000
     47      -8.9448      2.00000
     48      -8.7435      2.00000
     49      -8.7433      2.00000
     50      -8.1564      2.00000
     51      -8.1497      2.00000
     52      -8.0964      2.00000
     53      -7.7972      2.00000
     54      -7.7971      2.00000
     55      -7.5146      2.00000
     56      -7.5141      2.00000
     57      -7.5140      2.00000
     58      -7.5077      2.00000
     59      -6.9333      2.00000
     60      -6.9326      2.00000
     61      -5.6273      2.00000
     62      -5.6249      2.00000
     63      -5.1483      2.00000
     64      -4.0867      2.00000
     65      -3.2099      0.00000
     66      -2.3417      0.00000
     67      -2.0169      0.00000
     68      -2.0091      0.00000
     69      -0.5618      0.00000
     70      -0.5554      0.00000
     71       0.1300      0.00000
     72       0.1305      0.00000
     73       0.1840      0.00000
     74       0.1841      0.00000
     75       0.5858      0.00000
     76       0.6872      0.00000
     77       0.6934      0.00000
     78       0.9630      0.00000
     79       0.9631      0.00000
     80       1.1840      0.00000
     81       1.1841      0.00000
     82       1.2669      0.00000
     83       1.2670      0.00000
     84       1.3434      0.00000


--------------------------------------------------------------------------------------------------------


 soft charge-density along one line, spin component           1
         0         1         2         3         4         5         6         7         8         9
 total charge-density along one line
 
 pseudopotential strength for first ion, spin component:           1
 10.272  13.661   0.000  -0.000  -0.000  -0.000   0.000   0.000
 13.661  18.168   0.000  -0.000  -0.000  -0.000   0.000   0.000
  0.000   0.000  -4.396   0.000   0.000   8.598  -0.000  -0.000
 -0.000  -0.000   0.000  -4.388   0.000  -0.000   8.588  -0.000
 -0.000  -0.000   0.000   0.000  -4.396  -0.000  -0.000   8.598
 -0.000  -0.000   8.598  -0.000  -0.000 -18.957   0.000   0.000
  0.000   0.000  -0.000   8.588  -0.000   0.000 -18.948   0.000
  0.000   0.000  -0.000  -0.000   8.598   0.000   0.000 -18.957
 total augmentation occupancy for first ion, spin component:           1
  8.079  -3.580   0.000  -0.000  -0.001   0.000  -0.000  -0.000
 -3.580   1.644  -0.000   0.000   0.000  -0.000   0.000   0.000
  0.000  -0.000   1.830   0.000  -0.000   0.172   0.000  -0.000
 -0.000   0.000   0.000   1.197   0.000   0.000   0.073   0.000
 -0.001   0.000  -0.000   0.000   1.830  -0.000   0.000   0.172
  0.000  -0.000   0.172   0.000  -0.000   0.018   0.000  -0.000
 -0.000   0.000   0.000   0.073   0.000   0.000   0.005   0.000
 -0.000   0.000  -0.000   0.000   0.172  -0.000   0.000   0.018


------------------------ aborting loop because EDIFF is reached ----------------------------------------


    CHARGE:  cpu time    1.9442: real time    1.9491
    FORLOC:  cpu time    0.0790: real time    0.0792
    FORNL :  cpu time    6.4356: real time    6.4519
    STRESS:  cpu time   18.5926: real time   18.6399
    FORCOR:  cpu time    0.4271: real time    0.4282
    FORHAR:  cpu time    0.1514: real time    0.1517
    MIXING:  cpu time    0.0158: real time    0.0158
    OFIELD:  cpu time    0.0000: real time    0.0000

  Hirshfeld charges:
            ion         q(e)     
   ------------------------------
      1     C           0.000
      2     C          -0.000
      3     C           0.000
      4     C          -0.000
      5     C           0.000
      6     C          -0.000
      7     C           0.000
      8     C          -0.000
      9     C           0.000
     10     C          -0.000
     11     C           0.000
     12     C          -0.000
     13     C           0.000
     14     C          -0.000
     15     C           0.000
     16     C          -0.000
     17     C           0.000
     18     C          -0.000
     19     C           0.000
     20     C          -0.000
     21     C           0.000
     22     C          -0.000
     23     C           0.000
     24     C          -0.000
     25     C           0.000
     26     C          -0.000
     27     C           0.000
     28     C          -0.000
     29     C           0.000
     30     C          -0.000
     31     C           0.000
     32     C          -0.000

  Tkatchenko/Scheffler method for vdW energy calculation
  ---------------------------------------------------------------------------------------------

  Parameters of vdW forcefield:
            C6ts              R0ts           ALPHAts        RELVOL
            (au)              (au)            (au)                
   ---------------------------------------------------------------
   C          32.905          3.388         10.084          0.840
   C          32.905          3.388         10.084          0.840
   C          32.905          3.388         10.084          0.840
   C          32.905          3.388         10.084          0.840
   C          32.905          3.388         10.084          0.840
   C          32.905          3.388         10.084          0.840
   C          32.905          3.388         10.084          0.840
   C          32.905          3.388         10.084          0.840
   C          32.905          3.388         10.084          0.840
   C          32.905          3.388         10.084          0.840
   C          32.905          3.388         10.084          0.840
   C          32.905          3.388         10.084          0.840
   C          32.905          3.388         10.084          0.840
   C          32.905          3.388         10.084          0.840
   C          32.905          3.388         10.084          0.840
   C          32.905          3.388         10.084          0.840
   C          32.905          3.388         10.084          0.840
   C          32.905          3.388         10.084          0.840
   C          32.905          3.388         10.084          0.840
   C          32.905          3.388         10.084          0.840
   C          32.905          3.388         10.084          0.840
   C          32.905          3.388         10.084          0.840
   C          32.905          3.388         10.084          0.840
   C          32.905          3.388         10.084          0.840
   C          32.905          3.388         10.084          0.840
   C          32.905          3.388         10.084          0.840
   C          32.905          3.388         10.084          0.840
   C          32.905          3.388         10.084          0.840
   C          32.905          3.388         10.084          0.840
   C          32.905          3.388         10.084          0.840
   C          32.905          3.388         10.084          0.840
   C          32.905          3.388         10.084          0.840
  Edisp (eV):   -2.66015
    FORVDW:  cpu time    9.6729: real time    9.6973

  FORCE on cell =-STRESS in cart. coord.  units (eV):
  Direction    XX          YY          ZZ          XY          YZ          ZX
  --------------------------------------------------------------------------------------
  Alpha Z    20.01306    20.01306    20.01306
  Ewald   69113.54693 69113.09197-73419.57969    -1.51822     0.00501     0.00635
  Hartree 68432.84076 68432.78489-68252.02856    -0.18550     0.00481     0.00609
  E(xc)    -475.67821  -475.68007  -493.51605    -0.00627     0.00000     0.00000
  Local  ************************140059.59471     1.40637    -0.00981    -0.01242
  n-local  -113.60490  -113.61678  -103.74890    -0.04086     0.00000     0.00000
  augment   -12.48604   -12.48534   -11.49833     0.00248     0.00002     0.00002
  Kinetic  1924.00208  1924.12982  2200.56381     0.43436    -0.00001    -0.00002
  Fock        0.00000     0.00000     0.00000     0.00000     0.00000     0.00000
  vdW        -3.17986    -3.17990     0.00824    -0.00014    -0.00000    -0.00000
  -------------------------------------------------------------------------------------
  Total      -0.07331    -0.04767    -0.19171     0.09223     0.00002     0.00002
  in kB      -0.02794    -0.01817    -0.07308     0.03516     0.00001     0.00001
  external pressure =       -0.04 kB  Pullay stress =        0.00 kB


 VOLUME and BASIS-vectors are now :
 -----------------------------------------------------------------------------
  energy-cutoff  :      850.00
  volume of cell :     4203.17
      direct lattice vectors                 reciprocal lattice vectors
     9.854323835 -0.004993466  0.000000439     0.101448593 -0.058618088 -0.000000002
     4.929482092  8.531309007  0.000000519     0.000059379  0.117180997 -0.000000004
     0.000002224  0.000001756 49.981227789    -0.000000001 -0.000000001  0.020007512

  length of vectors
     9.854325101  9.853071961 49.981227789     0.117166110  0.117181012  0.020007512


 FORCES acting on ions
    electron-ion (+dipol)            ewald-force                    non-local-force                 convergence-correction
 -----------------------------------------------------------------------------------------------
   -.223E-01 0.366E-02 -.113E-05   0.382E-01 -.606E-02 -.274E-06   0.885E-02 -.134E-02 0.157E-04   0.324E-06 -.262E-06 0.952E-08
   0.223E-01 -.366E-02 -.152E-05   -.382E-01 0.606E-02 0.565E-07   -.886E-02 0.133E-02 0.157E-04   -.445E-06 0.141E-06 0.955E-08
   -.223E-01 0.366E-02 -.133E-05   0.382E-01 -.606E-02 -.776E-07   0.885E-02 -.134E-02 0.157E-04   0.409E-06 0.202E-06 0.952E-08
   0.223E-01 -.366E-02 -.153E-05   -.382E-01 0.606E-02 0.750E-07   -.886E-02 0.133E-02 0.157E-04   -.160E-05 0.361E-06 0.955E-08
   -.223E-01 0.366E-02 -.925E-06   0.382E-01 -.606E-02 -.488E-06   0.885E-02 -.134E-02 0.157E-04   0.124E-06 0.369E-06 0.953E-08
   0.223E-01 -.366E-02 -.199E-05   -.382E-01 0.606E-02 0.536E-06   -.886E-02 0.133E-02 0.157E-04   0.117E-06 0.568E-06 0.956E-08
   -.223E-01 0.367E-02 -.192E-05   0.382E-01 -.607E-02 0.503E-06   0.885E-02 -.134E-02 0.157E-04   0.950E-06 -.302E-06 0.953E-08
   0.223E-01 -.366E-02 -.188E-05   -.382E-01 0.606E-02 0.419E-06   -.887E-02 0.133E-02 0.157E-04   -.107E-05 -.382E-06 0.956E-08
   -.223E-01 0.366E-02 -.127E-05   0.382E-01 -.606E-02 -.137E-06   0.885E-02 -.134E-02 0.157E-04   0.775E-06 -.313E-06 0.952E-08
   0.223E-01 -.366E-02 -.172E-05   -.382E-01 0.606E-02 0.262E-06   -.886E-02 0.133E-02 0.157E-04   -.121E-05 -.103E-05 0.955E-08
   -.223E-01 0.366E-02 -.812E-06   0.382E-01 -.606E-02 -.599E-06   0.885E-02 -.134E-02 0.157E-04   0.539E-07 -.148E-06 0.949E-08
   0.223E-01 -.366E-02 -.137E-05   -.382E-01 0.606E-02 -.844E-07   -.886E-02 0.133E-02 0.157E-04   0.388E-06 0.143E-05 0.952E-08
   -.223E-01 0.366E-02 -.107E-05   0.382E-01 -.606E-02 -.346E-06   0.885E-02 -.134E-02 0.157E-04   0.140E-05 0.939E-06 0.955E-08
   0.223E-01 -.366E-02 -.174E-05   -.382E-01 0.606E-02 0.283E-06   -.886E-02 0.133E-02 0.157E-04   -.135E-05 -.371E-06 0.959E-08
   -.223E-01 0.366E-02 -.123E-05   0.382E-01 -.606E-02 -.181E-06   0.885E-02 -.134E-02 0.157E-04   0.208E-06 -.830E-06 0.953E-08
   0.223E-01 -.366E-02 -.137E-05   -.382E-01 0.606E-02 -.856E-07   -.886E-02 0.133E-02 0.157E-04   -.204E-06 0.283E-06 0.955E-08
   -.223E-01 0.366E-02 -.130E-05   0.382E-01 -.606E-02 -.109E-06   0.885E-02 -.134E-02 0.157E-04   0.279E-06 -.132E-05 0.951E-08
   0.223E-01 -.366E-02 -.201E-05   -.382E-01 0.606E-02 0.554E-06   -.886E-02 0.133E-02 0.157E-04   0.150E-07 -.384E-08 0.954E-08
   -.223E-01 0.366E-02 -.585E-06   0.382E-01 -.605E-02 -.830E-06   0.885E-02 -.134E-02 0.157E-04   0.183E-05 0.729E-06 0.953E-08
   0.223E-01 -.366E-02 -.139E-05   -.382E-01 0.606E-02 -.584E-07   -.886E-02 0.133E-02 0.157E-04   -.755E-06 0.144E-06 0.958E-08
   -.223E-01 0.366E-02 -.826E-06   0.382E-01 -.606E-02 -.588E-06   0.885E-02 -.134E-02 0.157E-04   -.212E-06 -.547E-06 0.953E-08
   0.223E-01 -.366E-02 -.173E-05   -.382E-01 0.606E-02 0.275E-06   -.886E-02 0.133E-02 0.157E-04   -.268E-06 0.282E-06 0.955E-08
   -.223E-01 0.366E-02 -.762E-06   0.382E-01 -.606E-02 -.651E-06   0.885E-02 -.134E-02 0.157E-04   0.133E-05 0.332E-06 0.954E-08
   0.223E-01 -.366E-02 -.146E-05   -.382E-01 0.606E-02 0.134E-08   -.886E-02 0.133E-02 0.157E-04   -.646E-06 -.521E-06 0.958E-08
   -.223E-01 0.366E-02 -.227E-05   0.382E-01 -.606E-02 0.857E-06   0.885E-02 -.134E-02 0.157E-04   0.112E-05 -.154E-06 0.952E-08
   0.223E-01 -.366E-02 -.160E-05   -.382E-01 0.606E-02 0.144E-06   -.886E-02 0.133E-02 0.157E-04   -.859E-06 0.122E-06 0.956E-08
   -.223E-01 0.366E-02 -.737E-06   0.382E-01 -.606E-02 -.677E-06   0.885E-02 -.134E-02 0.157E-04   0.207E-06 0.104E-06 0.954E-08
   0.223E-01 -.366E-02 -.188E-05   -.382E-01 0.606E-02 0.424E-06   -.886E-02 0.133E-02 0.157E-04   -.529E-06 0.295E-06 0.956E-08
   -.223E-01 0.366E-02 -.870E-06   0.382E-01 -.606E-02 -.547E-06   0.885E-02 -.134E-02 0.157E-04   0.121E-05 0.885E-07 0.954E-08
   0.223E-01 -.366E-02 -.156E-05   -.382E-01 0.606E-02 0.110E-06   -.886E-02 0.133E-02 0.157E-04   -.101E-05 0.450E-06 0.957E-08
   -.223E-01 0.367E-02 -.113E-05   0.382E-01 -.607E-02 -.283E-06   0.885E-02 -.134E-02 0.157E-04   0.208E-07 -.458E-06 0.954E-08
   0.223E-01 -.366E-02 -.297E-05   -.382E-01 0.606E-02 0.152E-05   -.886E-02 0.133E-02 0.157E-04   -.586E-06 -.195E-06 0.956E-08
 -----------------------------------------------------------------------------------------------
   0.862E-05 0.762E-05 -.459E-04   -.861E-13 -.626E-15 0.993E-16   -.291E-03 -.230E-03 0.503E-03   -.303E-08 0.463E-08 0.305E-06
 
 
 POSITION                                       TOTAL-FORCE (eV/Angst)
 -----------------------------------------------------------------------------------
     14.78245      8.52548     23.39122         0.024642     -0.003724      0.000000
      1.23113      0.70961     23.39121        -0.024640      0.003725     -0.000000
     11.08534      2.12699     23.39122         0.024640     -0.003724      0.000000
      2.46350      2.84244     23.39121        -0.024640      0.003724     -0.000000
     12.31771      4.25982     23.39122         0.024640     -0.003726      0.000000
      3.69587      4.97527     23.39121        -0.024640      0.003725     -0.000000
     13.55008      6.39265     23.39122         0.024641     -0.003726      0.000000
      4.92824      7.10809     23.39122        -0.024642      0.003725     -0.000000
      7.39171      8.52922     23.39122         0.024640     -0.003725     -0.000000
      3.69471      0.70836     23.39121        -0.024640      0.003725     -0.000000
      3.69459      2.13074     23.39121         0.024640     -0.003724      0.000000
      4.92708      2.84119     23.39121        -0.024640      0.003725     -0.000000
      4.92696      4.26357     23.39121         0.024640     -0.003725      0.000000
      6.15945      4.97402     23.39122        -0.024641      0.003725     -0.000000
      6.15933      6.39639     23.39122         0.024641     -0.003725      0.000000
      7.39182      7.10685     23.39122        -0.024640      0.003726     -0.000000
      9.85529      8.52797     23.39122         0.024639     -0.003725      0.000000
      6.15829      0.70712     23.39121        -0.024640      0.003724     -0.000000
      6.15817      2.12949     23.39121         0.024640     -0.003724      0.000000
      7.39066      2.83994     23.39122        -0.024641      0.003724     -0.000000
      7.39055      4.26232     23.39122         0.024640     -0.003725      0.000000
      8.62303      4.97277     23.39122        -0.024640      0.003725     -0.000000
      8.62292      6.39515     23.39122         0.024639     -0.003725      0.000000
      9.85540      7.10560     23.39122        -0.024639      0.003726     -0.000000
     12.31887      8.52672     23.39122         0.024640     -0.003724     -0.000000
      8.62187      0.70587     23.39122        -0.024641      0.003724      0.000000
      8.62176      2.12824     23.39122         0.024641     -0.003723      0.000000
      9.85424      2.83869     23.39122        -0.024640      0.003724     -0.000000
      9.85413      4.26107     23.39122         0.024640     -0.003725      0.000000
     11.08661      4.97152     23.39122        -0.024639      0.003726     -0.000000
     11.08650      6.39390     23.39122         0.024639     -0.003727      0.000000
     12.31898      7.10435     23.39122        -0.024640      0.003725     -0.000000
 -----------------------------------------------------------------------------------
    total drift:                               -0.000282     -0.000223      0.000457


--------------------------------------------------------------------------------------------------------



  FREE ENERGIE OF THE ION-ELECTRON SYSTEM (eV)
  ---------------------------------------------------
  free  energy   TOTEN  =      -298.14596764 eV

  energy  without entropy=     -298.14596764  energy(sigma->0) =     -298.14596764
 
 d Force = 0.1509892E-04[-0.312E-03, 0.343E-03]  d Energy = 0.4147921E-02-0.413E-02
 d Force = 0.1499261E-02[-0.485E-03, 0.348E-02]  d Ewald  =-0.2036891E+03 0.204E+03


--------------------------------------------------------------------------------------------------------


    POTLOK:  cpu time    0.3742: real time    0.3751


--------------------------------------------------------------------------------------------------------


 Quasi-Newton relaxation of ions (Broydens 2nd method)
  g(Force)  = 0.959E-03   g(Stress)= 0.926E-04

 retain information from N=  1 steps
 eigenvalues of (default step * inverse Hessian matrix)
  average eigenvalue of G=   0.3019
 eigenvalue spectrum of G is  0.3019


--------------------------------------------------------------------------------------------------------


  
 reached required accuracy - stopping structural energy minimisation
     LOOP+:  cpu time  458.0328: real time  459.3792
    4ORBIT:  cpu time    0.0001: real time    0.0023

 total amount of memory used by VASP MPI-rank0   254785. kBytes
=======================================================================

   base      :      30000. kBytes
   nonl-proj :      39787. kBytes
   fftplans  :      41100. kBytes
   grid      :      57575. kBytes
   one-center:         12. kBytes
   wavefun   :      86311. kBytes
 
  
  
 General timing and accounting informations for this job:
 ========================================================
  
                  Total CPU time used (sec):     1788.506
                            User time (sec):     1715.529
                          System time (sec):       72.977
                         Elapsed time (sec):     1794.904
  
                   Maximum memory used (kb):      357540.
                   Average memory used (kb):           0.
  
                          Minor page faults:      1788752
                          Major page faults:            0
                 Voluntary context switches:         1692
