unknown system                          
           1
     9.846720    0.000000    0.000000
     4.930000    8.528480    0.000000
     0.000000    0.000000   50.000000
   C 
  32
Direct configuration=     1
   0.99994770  0.99989583  0.46800000
   0.08326389  0.08323171  0.46800000
   0.99994770  0.24989583  0.46800000
   0.08326389  0.33323171  0.46800000
   0.99994770  0.49989583  0.46800000
   0.08326389  0.58323171  0.46800000
   0.99994770  0.74989583  0.46800000
   0.08326389  0.83323171  0.46800000
   0.24994770  0.99989583  0.46800000
   0.33326389  0.08323171  0.46800000
   0.24994770  0.24989583  0.46800000
   0.33326389  0.33323171  0.46800000
   0.24994770  0.49989583  0.46800000
   0.33326389  0.58323171  0.46800000
   0.24994770  0.74989583  0.46800000
   0.33326389  0.83323171  0.46800000
   0.49994770  0.99989583  0.46800000
   0.58326389  0.08323171  0.46800000
   0.49994770  0.24989583  0.46800000
   0.58326389  0.33323171  0.46800000
   0.49994770  0.49989583  0.46800000
   0.58326389  0.58323171  0.46800000
   0.49994770  0.74989583  0.46800000
   0.58326389  0.83323171  0.46800000
   0.74994769  0.99989583  0.46800000
   0.83326389  0.08323171  0.46800000
   0.74994770  0.24989583  0.46800000
   0.83326389  0.33323171  0.46800000
   0.74994770  0.49989583  0.46800000
   0.83326389  0.58323171  0.46800000
   0.74994769  0.74989583  0.46800000
   0.83326389  0.83323171  0.46800000
unknown system                          
           1
     9.869917   -0.008947    0.000000
     4.933866    8.541828    0.000000
     0.000002    0.000001   49.985574
   C 
  32
Direct configuration=     2
   0.99995421  0.99989438  0.46800000
   0.08325737  0.08323316  0.46800000
   0.99995421  0.24989438  0.46800000
   0.08325737  0.33323316  0.46800000
   0.99995421  0.49989438  0.46800000
   0.08325738  0.58323317  0.46800000
   0.99995422  0.74989438  0.46800000
   0.08325737  0.83323317  0.46800000
   0.24995421  0.99989437  0.46800000
   0.33325738  0.08323316  0.46800000
   0.24995421  0.24989438  0.46800000
   0.33325738  0.33323317  0.46800000
   0.24995421  0.49989438  0.46800000
   0.33325738  0.58323316  0.46800000
   0.24995421  0.74989438  0.46800000
   0.33325738  0.83323316  0.46800000
   0.49995422  0.99989438  0.46800000
   0.58325738  0.08323316  0.46800000
   0.49995422  0.24989438  0.46800000
   0.58325737  0.33323317  0.46800000
   0.49995421  0.49989438  0.46800000
   0.58325737  0.58323316  0.46800000
   0.49995421  0.74989438  0.46800000
   0.58325738  0.83323316  0.46800000
   0.74995421  0.99989438  0.46800000
   0.83325738  0.08323316  0.46800000
   0.74995421  0.24989438  0.46800000
   0.83325738  0.33323316  0.46800000
   0.74995421  0.49989438  0.46800000
   0.83325737  0.58323317  0.46800000
   0.74995421  0.74989438  0.46800000
   0.83325737  0.83323317  0.46800000
unknown system                          
           1
     9.854324   -0.004993    0.000000
     4.929482    8.531309    0.000001
     0.000002    0.000002   49.981228
   C 
  32
Direct configuration=     3
   0.99991137  0.99990152  0.46800000
   0.08330021  0.08322602  0.46800000
   0.99991137  0.24990152  0.46800000
   0.08330021  0.33322603  0.46800000
   0.99991137  0.49990152  0.46800000
   0.08330021  0.58322603  0.46800000
   0.99991137  0.74990152  0.46800000
   0.08330022  0.83322602  0.46800000
   0.24991137  0.99990152  0.46800000
   0.33330022  0.08322602  0.46800000
   0.24991137  0.24990152  0.46800000
   0.33330022  0.33322602  0.46800000
   0.24991137  0.49990152  0.46800000
   0.33330022  0.58322602  0.46800000
   0.24991137  0.74990152  0.46800000
   0.33330022  0.83322602  0.46800000
   0.49991138  0.99990152  0.46800000
   0.58330022  0.08322602  0.46800000
   0.49991138  0.24990152  0.46800000
   0.58330022  0.33322602  0.46800000
   0.49991137  0.49990152  0.46800000
   0.58330022  0.58322602  0.46800000
   0.49991137  0.74990152  0.46800000
   0.58330022  0.83322602  0.46800000
   0.74991137  0.99990152  0.46800000
   0.83330021  0.08322603  0.46800000
   0.74991137  0.24990152  0.46800000
   0.83330021  0.33322603  0.46800000
   0.74991137  0.49990152  0.46800000
   0.83330021  0.58322602  0.46800000
   0.74991137  0.74990152  0.46800000
   0.83330022  0.83322602  0.46800000
