       N       E                     dE             d eps       ncg     rms          rms(c)
DAV:   1     0.298709195820E+04    0.29871E+04   -0.10165E+05  4356   0.163E+03
DAV:   2     0.142891007178E+03   -0.28442E+04   -0.26789E+04  6408   0.291E+02
DAV:   3    -0.557508452072E+03   -0.70040E+03   -0.69712E+03  5004   0.149E+02
DAV:   4    -0.592701205254E+03   -0.35193E+02   -0.34766E+02  4944   0.440E+01
DAV:   5    -0.593705231166E+03   -0.10040E+01   -0.99437E+00  5484   0.688E+00    0.341E+01
DAV:   6    -0.567222887538E+03    0.26482E+02   -0.26122E+01  4608   0.116E+01    0.199E+01
DAV:   7    -0.558241363780E+03    0.89815E+01   -0.34050E+01  4536   0.127E+01    0.529E+00
DAV:   8    -0.558185692000E+03    0.55672E-01   -0.12797E+00  4800   0.292E+00    0.105E+00
DAV:   9    -0.558151926358E+03    0.33766E-01   -0.10698E-01  4776   0.901E-01    0.326E-01
DAV:  10    -0.558144374962E+03    0.75514E-02   -0.32493E-02  4692   0.369E-01    0.295E-01
DAV:  11    -0.558137850747E+03    0.65242E-02   -0.24018E-02  4524   0.282E-01    0.192E-01
DAV:  12    -0.558133231167E+03    0.46196E-02   -0.11616E-02  4500   0.202E-01    0.113E-01
DAV:  13    -0.558135573716E+03   -0.23425E-02   -0.91769E-03  4608   0.172E-01    0.702E-02
DAV:  14    -0.558140102465E+03   -0.45287E-02   -0.13096E-03  4476   0.886E-02    0.374E-02
DAV:  15    -0.558144430207E+03   -0.43277E-02   -0.54448E-04  4344   0.461E-02    0.232E-02
DAV:  16    -0.558147474121E+03   -0.30439E-02   -0.15866E-04  4368   0.232E-02    0.131E-02
DAV:  17    -0.558149508457E+03   -0.20343E-02   -0.71408E-05  4644   0.135E-02    0.779E-03
DAV:  18    -0.558150608619E+03   -0.11002E-02   -0.38998E-05  4440   0.892E-03    0.466E-03
DAV:  19    -0.558151084321E+03   -0.47570E-03   -0.16234E-05  4596   0.616E-03    0.248E-03
DAV:  20    -0.558151361634E+03   -0.27731E-03   -0.97086E-06  4308   0.446E-03    0.155E-03
DAV:  21    -0.558151476958E+03   -0.11532E-03   -0.26197E-06  3852   0.231E-03    0.844E-04
DAV:  22    -0.558151528942E+03   -0.51984E-04   -0.48449E-07  3684   0.117E-03    0.482E-04
DAV:  23    -0.558151553621E+03   -0.24679E-04   -0.11275E-07  3216   0.590E-04    0.329E-04
DAV:  24    -0.558151565358E+03   -0.11737E-04   -0.30403E-08  2832   0.332E-04    0.183E-04
DAV:  25    -0.558151571705E+03   -0.63472E-05   -0.94923E-09  2748   0.245E-04    0.101E-04
DAV:  26    -0.558151573862E+03   -0.21571E-05   -0.52705E-10  2616   0.136E-04    0.547E-05
DAV:  27    -0.558151574908E+03   -0.10457E-05    0.86147E-10  2520   0.957E-05    0.308E-05
DAV:  28    -0.558151575347E+03   -0.43854E-06    0.27736E-09  2676   0.606E-05    0.148E-05
DAV:  29    -0.558151575512E+03   -0.16496E-06    0.32308E-09  2460   0.422E-05    0.101E-05
DAV:  30    -0.558151575571E+03   -0.59135E-07    0.36288E-09  2784   0.279E-05
   1 F= -.56511110E+03 E0= -.56511110E+03  d E =-.565111E+03
       N       E                     dE             d eps       ncg     rms          rms(c)
DAV:   1    -0.557777909459E+03    0.37367E+00   -0.15475E+01  4224   0.123E+01    0.277E+00
DAV:   2    -0.557689512615E+03    0.88397E-01   -0.34245E-01  4620   0.173E+00    0.177E+00
DAV:   3    -0.557642207566E+03    0.47305E-01   -0.14516E-01  4308   0.979E-01    0.246E-01
DAV:   4    -0.557640534287E+03    0.16733E-02   -0.15895E-02  4572   0.380E-01    0.169E-01
DAV:   5    -0.557640558532E+03   -0.24245E-04   -0.57868E-03  4416   0.169E-01    0.122E-01
DAV:   6    -0.557640371341E+03    0.18719E-03   -0.31627E-03  4308   0.112E-01    0.561E-02
DAV:   7    -0.557640406420E+03   -0.35079E-04   -0.22847E-04  4764   0.351E-02    0.245E-02
DAV:   8    -0.557640495702E+03   -0.89281E-04   -0.61196E-05  4536   0.185E-02    0.104E-02
DAV:   9    -0.557640580023E+03   -0.84321E-04   -0.12465E-05  4404   0.775E-03    0.655E-03
DAV:  10    -0.557640711766E+03   -0.13174E-03   -0.11013E-05  4344   0.590E-03    0.335E-03
DAV:  11    -0.557640789784E+03   -0.78017E-04   -0.31086E-06  4620   0.283E-03    0.234E-03
DAV:  12    -0.557640897351E+03   -0.10757E-03   -0.78400E-06  4272   0.383E-03    0.122E-03
DAV:  13    -0.557640927190E+03   -0.29839E-04   -0.10500E-06  3768   0.179E-03    0.863E-04
DAV:  14    -0.557640958581E+03   -0.31391E-04   -0.76020E-07  3648   0.137E-03    0.433E-04
DAV:  15    -0.557640969007E+03   -0.10426E-04   -0.54324E-08  2880   0.520E-04    0.305E-04
DAV:  16    -0.557640978786E+03   -0.97797E-05   -0.80792E-08  2988   0.391E-04    0.162E-04
DAV:  17    -0.557640982475E+03   -0.36887E-05   -0.36831E-08  2892   0.272E-04    0.866E-05
DAV:  18    -0.557640984619E+03   -0.21439E-05   -0.10509E-08  2856   0.188E-04    0.690E-05
DAV:  19    -0.557640985708E+03   -0.10897E-05   -0.42706E-09  2688   0.130E-04    0.278E-05
DAV:  20    -0.557640986199E+03   -0.49010E-06    0.12229E-09  2556   0.886E-05    0.222E-05
DAV:  21    -0.557640986476E+03   -0.27756E-06    0.24199E-09  2520   0.633E-05    0.102E-05
DAV:  22    -0.557640986586E+03   -0.10962E-06    0.37322E-09  2520   0.432E-05    0.681E-06
DAV:  23    -0.557640986649E+03   -0.63603E-07    0.41143E-09  2496   0.295E-05
   2 F= -.56479190E+03 E0= -.56479190E+03  d E =0.319197E+00
       N       E                     dE             d eps       ncg     rms          rms(c)
DAV:   1    -0.558235308117E+03   -0.59432E+00   -0.10195E+01  4152   0.960E+00    0.187E+00
DAV:   2    -0.558195625958E+03    0.39682E-01   -0.26024E-01  4440   0.148E+00    0.124E+00
DAV:   3    -0.558169810535E+03    0.25815E-01   -0.77632E-02  4536   0.758E-01    0.283E-01
DAV:   4    -0.558167949447E+03    0.18611E-02   -0.16547E-02  4752   0.355E-01    0.151E-01
DAV:   5    -0.558168174507E+03   -0.22506E-03   -0.99235E-03  4404   0.190E-01    0.143E-01
DAV:   6    -0.558167887818E+03    0.28669E-03   -0.43589E-03  4380   0.125E-01    0.488E-02
DAV:   7    -0.558168056681E+03   -0.16886E-03   -0.26799E-04  4428   0.392E-02    0.176E-02
DAV:   8    -0.558168159213E+03   -0.10253E-03   -0.36799E-05  4836   0.152E-02    0.979E-03
DAV:   9    -0.558168321745E+03   -0.16253E-03   -0.22253E-05  4584   0.996E-03    0.557E-03
DAV:  10    -0.558168415522E+03   -0.93777E-04   -0.65836E-06  4656   0.464E-03    0.366E-03
DAV:  11    -0.558168539631E+03   -0.12411E-03   -0.14157E-05  4356   0.575E-03    0.212E-03
DAV:  12    -0.558168593546E+03   -0.53915E-04   -0.35445E-06  4224   0.286E-03    0.126E-03
DAV:  13    -0.558168652824E+03   -0.59279E-04   -0.81673E-06  3960   0.353E-03    0.677E-04
DAV:  14    -0.558168662452E+03   -0.96279E-05   -0.50245E-07  4128   0.108E-03    0.418E-04
DAV:  15    -0.558168670740E+03   -0.82878E-05   -0.34439E-07  3636   0.832E-04    0.254E-04
DAV:  16    -0.558168673703E+03   -0.29625E-05   -0.57189E-08  2844   0.397E-04    0.160E-04
DAV:  17    -0.558168675144E+03   -0.14419E-05   -0.33825E-08  2760   0.296E-04    0.995E-05
DAV:  18    -0.558168675776E+03   -0.63191E-06   -0.59649E-09  2604   0.165E-04    0.488E-05
DAV:  19    -0.558168676126E+03   -0.34996E-06   -0.35795E-10  2556   0.103E-04    0.378E-05
DAV:  20    -0.558168676352E+03   -0.22561E-06    0.22571E-09  2520   0.707E-05    0.199E-05
DAV:  21    -0.558168676492E+03   -0.14023E-06    0.29737E-09  2592   0.485E-05    0.137E-05
DAV:  22    -0.558168676571E+03   -0.79126E-07    0.35481E-09  2436   0.364E-05
   3 F= -.56519350E+03 E0= -.56519350E+03  d E =-.401595E+00
       N       E                     dE             d eps       ncg     rms          rms(c)
DAV:   1    -0.558123066276E+03    0.45610E-01   -0.59686E+00  4140   0.710E+00    0.584E-01
DAV:   2    -0.558128787901E+03   -0.57216E-02   -0.15396E-01  4836   0.107E+00    0.390E-01
DAV:   3    -0.558126284234E+03    0.25037E-02   -0.15951E-02  4584   0.331E-01    0.204E-01
DAV:   4    -0.558125982774E+03    0.30146E-03   -0.37704E-03  4512   0.140E-01    0.124E-01
DAV:   5    -0.558126000585E+03   -0.17811E-04   -0.55354E-03  4560   0.140E-01    0.987E-02
DAV:   6    -0.558125815805E+03    0.18478E-03   -0.21623E-03  4236   0.929E-02    0.195E-02
DAV:   7    -0.558125824331E+03   -0.85256E-05   -0.13084E-04  4596   0.284E-02    0.158E-02
DAV:   8    -0.558125825885E+03   -0.15539E-05   -0.57833E-06  5532   0.598E-03    0.124E-02
DAV:   9    -0.558125833232E+03   -0.73468E-05   -0.46852E-06  4368   0.644E-03    0.401E-03
DAV:  10    -0.558125837741E+03   -0.45095E-05   -0.12531E-06  4536   0.275E-03    0.210E-03
DAV:  11    -0.558125843913E+03   -0.61717E-05   -0.35039E-07  3516   0.132E-03    0.921E-04
DAV:  12    -0.558125851354E+03   -0.74406E-05   -0.27916E-07  3492   0.980E-04    0.664E-04
DAV:  13    -0.558125856882E+03   -0.55283E-05   -0.12950E-07  3264   0.605E-04    0.509E-04
DAV:  14    -0.558125862641E+03   -0.57587E-05   -0.25564E-07  3384   0.642E-04    0.423E-04
DAV:  15    -0.558125864618E+03   -0.19777E-05   -0.22946E-08  2976   0.299E-04    0.188E-04
DAV:  16    -0.558125865829E+03   -0.12105E-05   -0.10181E-08  2856   0.224E-04    0.700E-05
DAV:  17    -0.558125866560E+03   -0.73092E-06   -0.41099E-09  2784   0.154E-04    0.697E-05
DAV:  18    -0.558125867157E+03   -0.59702E-06   -0.34373E-09  2892   0.119E-04    0.507E-05
DAV:  19    -0.558125867361E+03   -0.20389E-06    0.14423E-09  2688   0.801E-05    0.277E-05
DAV:  20    -0.558125867530E+03   -0.16985E-06    0.19720E-09  2592   0.689E-05    0.189E-05
DAV:  21    -0.558125867566E+03   -0.35947E-07    0.34284E-09  2796   0.432E-05
   4 F= -.56514420E+03 E0= -.56514420E+03  d E =0.493020E-01
       N       E                     dE             d eps       ncg     rms          rms(c)
DAV:   1    -0.558167923554E+03   -0.42056E-01   -0.36659E+00  4140   0.559E+00    0.470E-01
DAV:   2    -0.558171781366E+03   -0.38578E-02   -0.93356E-02  4944   0.830E-01    0.305E-01
DAV:   3    -0.558170278630E+03    0.15027E-02   -0.92889E-03  4776   0.254E-01    0.149E-01
DAV:   4    -0.558170142120E+03    0.13651E-03   -0.25598E-03  4416   0.112E-01    0.907E-02
DAV:   5    -0.558170140618E+03    0.15025E-05   -0.33864E-03  4488   0.108E-01    0.702E-02
DAV:   6    -0.558170054833E+03    0.85785E-04   -0.10590E-03  4272   0.653E-02    0.140E-02
DAV:   7    -0.558170060693E+03   -0.58598E-05   -0.66231E-05  4536   0.202E-02    0.108E-02
DAV:   8    -0.558170061714E+03   -0.10214E-05   -0.42219E-06  5724   0.471E-03    0.825E-03
DAV:   9    -0.558170065214E+03   -0.34999E-05   -0.27954E-06  4428   0.492E-03    0.266E-03
DAV:  10    -0.558170066080E+03   -0.86594E-06   -0.74483E-07  4560   0.216E-03    0.104E-03
DAV:  11    -0.558170067320E+03   -0.12405E-05   -0.11898E-07  2940   0.875E-04    0.386E-04
DAV:  12    -0.558170068572E+03   -0.12512E-05   -0.52844E-08  2988   0.518E-04    0.241E-04
DAV:  13    -0.558170069621E+03   -0.10491E-05   -0.28690E-08  2928   0.352E-04    0.160E-04
DAV:  14    -0.558170070899E+03   -0.12783E-05   -0.73585E-08  3156   0.366E-04    0.109E-04
DAV:  15    -0.558170071262E+03   -0.36262E-06   -0.61053E-09  2892   0.178E-04    0.935E-05
DAV:  16    -0.558170071574E+03   -0.31191E-06   -0.90680E-09  2820   0.160E-04    0.365E-05
DAV:  17    -0.558170071674E+03   -0.99939E-07    0.52852E-10  2640   0.101E-04
   5 F= -.56519842E+03 E0= -.56519842E+03  d E =-.542260E-01
       N       E                     dE             d eps       ncg     rms          rms(c)
DAV:   1    -0.558162954242E+03    0.71173E-02   -0.21930E-01  4200   0.137E+00    0.142E-01
DAV:   2    -0.558163104547E+03   -0.15030E-03   -0.55118E-03  4596   0.203E-01    0.955E-02
DAV:   3    -0.558162980746E+03    0.12380E-03   -0.70138E-04  4800   0.715E-02    0.367E-02
DAV:   4    -0.558162970332E+03    0.10414E-04   -0.12324E-04  4584   0.273E-02    0.172E-02
DAV:   5    -0.558162975301E+03   -0.49695E-05   -0.12119E-04  4512   0.207E-02    0.164E-02
DAV:   6    -0.558162970787E+03    0.45144E-05   -0.60352E-05  4380   0.147E-02    0.504E-03
DAV:   7    -0.558162971088E+03   -0.30087E-06   -0.30493E-06  4704   0.435E-03    0.251E-03
DAV:   8    -0.558162971515E+03   -0.42735E-06   -0.24684E-07  2940   0.138E-03    0.125E-03
DAV:   9    -0.558162972117E+03   -0.60142E-06   -0.98666E-08  2736   0.887E-04    0.242E-04
DAV:  10    -0.558162972377E+03   -0.26073E-06   -0.29730E-08  2616   0.488E-04    0.172E-04
DAV:  11    -0.558162972691E+03   -0.31368E-06   -0.12528E-08  2724   0.276E-04    0.110E-04
DAV:  12    -0.558162972894E+03   -0.20272E-06   -0.32720E-09  2652   0.177E-04    0.585E-05
DAV:  13    -0.558162973169E+03   -0.27514E-06   -0.85772E-09  2676   0.179E-04    0.547E-05
DAV:  14    -0.558162973268E+03   -0.99219E-07   -0.35401E-10  2712   0.112E-04
   6 F= -.56519845E+03 E0= -.56519845E+03  d E =-.316899E-04
       N       E                     dE             d eps       ncg     rms          rms(c)
DAV:   1    -0.558173278087E+03   -0.10305E-01   -0.54347E-02  4092   0.691E-01    0.107E-01
DAV:   2    -0.558173179959E+03    0.98128E-04   -0.12978E-03  4488   0.104E-01    0.734E-02
DAV:   3    -0.558173076387E+03    0.10357E-03   -0.30212E-04  4392   0.489E-02    0.202E-02
DAV:   4    -0.558173062038E+03    0.14349E-04   -0.69446E-05  4536   0.231E-02    0.101E-02
DAV:   5    -0.558173060720E+03    0.13183E-05   -0.38755E-05  4332   0.122E-02    0.913E-03
DAV:   6    -0.558173059215E+03    0.15053E-05   -0.18630E-05  4296   0.830E-03    0.346E-03
DAV:   7    -0.558173060813E+03   -0.15978E-05   -0.11266E-06  4560   0.253E-03    0.138E-03
DAV:   8    -0.558173061967E+03   -0.11540E-05   -0.13859E-07  2820   0.102E-03    0.685E-04
DAV:   9    -0.558173064055E+03   -0.20888E-05   -0.12366E-07  2820   0.807E-04    0.348E-04
DAV:  10    -0.558173065439E+03   -0.13838E-05   -0.37664E-08  2844   0.439E-04    0.253E-04
DAV:  11    -0.558173068153E+03   -0.27136E-05   -0.15804E-07  3420   0.528E-04    0.139E-04
DAV:  12    -0.558173068623E+03   -0.46979E-06   -0.33392E-09  2760   0.169E-04    0.919E-05
DAV:  13    -0.558173070106E+03   -0.14831E-05   -0.62566E-08  2856   0.306E-04    0.544E-05
DAV:  14    -0.558173070401E+03   -0.29555E-06   -0.64902E-09  2712   0.157E-04    0.371E-05
DAV:  15    -0.558173070696E+03   -0.29462E-06   -0.78478E-09  2688   0.144E-04    0.197E-05
DAV:  16    -0.558173070843E+03   -0.14720E-06   -0.18785E-09  2496   0.106E-04    0.167E-05
DAV:  17    -0.558173070910E+03   -0.66608E-07    0.11195E-09  2508   0.737E-05
   7 F= -.56520135E+03 E0= -.56520135E+03  d E =-.289488E-02
