 vasp.5.4.4.18Apr17-6-g9f103f2a35 (build Jan 12 2023 11:40:15) complex          
  
 executed on             LinuxIFC date 2023.12.04  09:10:42
 running on   48 total cores
 distrk:  each k-point on   48 cores,    1 groups
 distr:  one band on NCORES_PER_BAND=   8 cores,    6 groups


--------------------------------------------------------------------------------------------------------


 INCAR:
 POTCAR:    PAW_PBE C 08Apr2002                   
 POTCAR:    PAW_PBE C 08Apr2002                   
   SHA256 =  253f7b50bb8d59471dbedb8285d89021f4a42ed1a2c5d38a03a736e69125dd95 C/
   COPYR  = (c) Copyright 08Apr2002 Georg Kresse                                
   COPYR  = This file is part of the software VASP. Any use, copying, and all ot
   COPYR  = If you do not have a valid VASP license, you may not use, copy or di
   VRHFIN =C: s2p2                                                              
   LEXCH  = PE                                                                  
   EATOM  =   147.1560 eV,   10.8157 Ry                                         
                                                                                
   TITEL  = PAW_PBE C 08Apr2002                                                 
   LULTRA =        F    use ultrasoft PP ?                                      
   IUNSCR =        1    unscreen: 0-lin 1-nonlin 2-no                           
   RPACOR =    1.200    partial core radius                                     
   POMASS =   12.011; ZVAL   =    4.000    mass and valenz                      
   RCORE  =    1.500    outmost cutoff radius                                   
   RWIGS  =    1.630; RWIGS  =    0.863    wigner-seitz radius (au A)           
   ENMAX  =  400.000; ENMIN  =  300.000 eV                                      
   ICORE  =        2    local potential                                         
   LCOR   =        T    correct aug charges                                     
   LPAW   =        T    paw PP                                                  
   EAUG   =  644.873                                                            
   DEXC   =    0.000                                                            
   RMAX   =    1.529    core radius for proj-oper                               
   RAUG   =    1.300    factor for augmentation sphere                          
   RDEP   =    1.501    radius for radial grids                                 
   RDEPT  =    1.300    core radius for aug-charge                              
                                                                                
   Atomic configuration                                                         
    4 entries                                                                   
     n  l   j            E        occ.                                          
     1  0  0.50      -273.3789   2.0000                                         
     2  0  0.50       -13.7508   2.0000                                         
     2  1  0.50        -5.2854   2.0000                                         
     3  2  1.50        -5.4423   0.0000                                         
   Description                                                                  
     l       E           TYP  RCUT    TYP  RCUT                                 
     0    -13.7508458     23  1.200                                             
     0     -8.2022199     23  1.200                                             
     1     -5.2854383     23  1.500                                             
     1     34.0145650     23  1.500                                             
     2     -5.4423304      7  1.500                                             
  local pseudopotential read in
  partial core-charges read in
  partial kinetic energy density read in
  atomic valenz-charges read in
  non local Contribution for L=           0  read in
    real space projection operators read in
  non local Contribution for L=           0  read in
    real space projection operators read in
  non local Contribution for L=           1  read in
    real space projection operators read in
  non local Contribution for L=           1  read in
    real space projection operators read in
    PAW grid and wavefunctions read in
 
   number of l-projection  operators is LMAX  =           4
   number of lm-projection operators is LMMAX =           8
 

 ----------------------------------------------------------------------------- 
|                                                                             |
|  ADVICE TO THIS USER RUNNING 'VASP/VAMP'   (HEAR YOUR MASTER'S VOICE ...):  |
|                                                                             |
|      You have a (more or less) 'large supercell' and for larger cells       |
|      it might be more efficient to use real space projection opertators     |
|      So try LREAL= Auto  in the INCAR   file.                               |
|      Mind:          For very  accurate calculation you might also keep the  |
|      reciprocal projection scheme          (i.e. LREAL=.FALSE.)             |
|                                                                             |
 ----------------------------------------------------------------------------- 

  PAW_PBE C 08Apr2002                   :
 energy of atom  1       EATOM= -147.1560
 kinetic energy error for atom=    0.0012 (will be added to EATOM!!)
 
 
 POSCAR: POSCAR file written by OVITO Basic 3.7.1
  positions in direct lattice
  velocities in cartesian coordinates
 exchange correlation table for  LEXCH =        8
   RHO(1)=    0.500       N(1)  =     2000
   RHO(2)=  100.500       N(2)  =     4000
 


--------------------------------------------------------------------------------------------------------


 ion  position               nearest neighbor table
   1  0.000  0.000  0.457-   2 1.42  48 1.43  14 1.43
   2  0.083  0.083  0.456-   1 1.42  17 1.43   5 1.43
   3  0.000  0.000  0.383-   4 1.42  50 1.43  16 1.43
   4  0.083  0.083  0.384-   3 1.42  19 1.43   7 1.43
   5  0.999  0.251  0.455-   6 1.43   2 1.43  52 1.45
   6  0.083  0.333  0.456-   9 1.42  21 1.43   5 1.43
   7  0.999  0.251  0.385-   4 1.43   8 1.43  54 1.45
   8  0.083  0.333  0.384-  11 1.42  23 1.43   7 1.43
   9  0.000  0.499  0.457-   6 1.42  56 1.43  10 1.43
  10  0.084  0.583  0.456-  13 1.43   9 1.43  25 1.43
  11  0.000  0.499  0.383-   8 1.42  58 1.43  12 1.43
  12  0.084  0.583  0.384-  15 1.43  11 1.43  27 1.43
  13  1.000  0.750  0.457-  60 1.42  14 1.43  10 1.43
  14  0.084  0.833  0.456-  13 1.43   1 1.43  29 1.43
  15  1.000  0.750  0.383-  62 1.42  12 1.43  16 1.43
  16  0.084  0.833  0.384-  15 1.43   3 1.43  31 1.43
  17  0.251  0.999  0.455-   2 1.43  18 1.43  30 1.45
  18  0.333  0.083  0.456-  33 1.42  21 1.43  17 1.43
  19  0.251  0.999  0.385-   4 1.43  20 1.43  32 1.45
  20  0.333  0.083  0.384-  35 1.42  23 1.43  19 1.43
  21  0.251  0.251  0.455-   6 1.43  18 1.43  22 1.45
  22  0.334  0.334  0.450-  37 1.43  25 1.43  21 1.45
  23  0.251  0.251  0.385-   8 1.43  20 1.43  24 1.45
  24  0.334  0.334  0.390-  39 1.43  27 1.43  23 1.45
  25  0.246  0.501  0.448-  10 1.43  22 1.43  26 1.47
  26  0.292  0.604  0.434-  28 1.43  25 1.47  29 1.47
  27  0.246  0.501  0.392-  12 1.43  24 1.43  28 1.47
  28  0.292  0.604  0.406-  26 1.43  27 1.47  31 1.47
  29  0.246  0.753  0.448-  14 1.43  30 1.43  26 1.47
  30  0.334  0.832  0.450-  43 1.43  29 1.43  17 1.45
  31  0.246  0.753  0.392-  16 1.43  32 1.43  28 1.47
  32  0.334  0.832  0.390-  45 1.43  31 1.43  19 1.45
  33  0.499  0.000  0.457-  18 1.42  44 1.43  34 1.43
  34  0.583  0.084  0.456-  47 1.43  33 1.43  37 1.43
  35  0.499  0.000  0.383-  20 1.42  46 1.43  36 1.43
  36  0.583  0.084  0.384-  49 1.43  35 1.43  39 1.43
  37  0.501  0.245  0.448-  34 1.43  22 1.43  38 1.47
  38  0.604  0.292  0.434-  40 1.43  51 1.47  37 1.47
  39  0.501  0.245  0.392-  36 1.43  24 1.43  40 1.47
  40  0.604  0.292  0.406-  38 1.43  53 1.47  39 1.47
  41  0.604  0.604  0.434-  42 1.43  55 1.47  43 1.47
  42  0.604  0.604  0.406-  41 1.43  57 1.47  45 1.47
  43  0.501  0.753  0.448-  44 1.43  30 1.43  41 1.47
  44  0.583  0.833  0.456-  59 1.43  33 1.43  43 1.43
  45  0.501  0.753  0.392-  46 1.43  32 1.43  42 1.47
  46  0.583  0.833  0.384-  61 1.43  35 1.43  45 1.43
  47  0.750  1.000  0.457-  60 1.42  34 1.43  48 1.43
  48  0.833  0.084  0.456-  47 1.43   1 1.43  51 1.43
  49  0.750  1.000  0.383-  62 1.42  36 1.43  50 1.43
  50  0.833  0.084  0.384-  49 1.43   3 1.43  53 1.43
  51  0.753  0.245  0.448-  48 1.43  52 1.43  38 1.47
  52  0.832  0.334  0.450-  55 1.43  51 1.43   5 1.45
  53  0.753  0.245  0.392-  50 1.43  54 1.43  40 1.47
  54  0.832  0.334  0.390-  57 1.43  53 1.43   7 1.45
  55  0.753  0.501  0.448-  56 1.43  52 1.43  41 1.47
  56  0.833  0.583  0.456-  59 1.43   9 1.43  55 1.43
  57  0.753  0.501  0.392-  58 1.43  54 1.43  42 1.47
  58  0.833  0.583  0.384-  61 1.43  11 1.43  57 1.43
  59  0.750  0.750  0.457-  60 1.42  44 1.43  56 1.43
  60  0.833  0.833  0.458-  13 1.42  47 1.42  59 1.42
  61  0.750  0.750  0.383-  62 1.42  46 1.43  58 1.43
  62  0.833  0.833  0.382-  15 1.42  49 1.42  61 1.42
 
  LATTYP: Found a simple monoclinic cell.
 ALAT       =    17.0497545948
 B/A-ratio  =     2.9325935292
 C/A-ratio  =     1.5274827517
 COS(beta)  =    -0.9819528776
  
  Lattice vectors:
  
 A1 = ( -14.7634400000,   8.5284800000,   0.0000000000)
 A2 = (   0.0000000000,   0.0000000000, -50.0000000000)
 A3 = (  19.6801600000, -17.0569600000,   0.0000000000)


Analysis of symmetry for initial positions (statically):
=====================================================================
 Subroutine PRICEL returns:
 Original cell was already a primitive cell.
 

 Routine SETGRP: Setting up the symmetry group for a 
 simple monoclinic supercell.


 Subroutine GETGRP returns: Found  1 space group operations
 (whereof  1 operations were pure point group operations)
 out of a pool of  4 trial point group operations.


The static configuration has the point symmetry C_1 .


Analysis of symmetry for dynamics (positions and initial velocities):
=====================================================================
 Subroutine PRICEL returns:
 Original cell was already a primitive cell.
 

 Routine SETGRP: Setting up the symmetry group for a 
 simple monoclinic supercell.


 Subroutine GETGRP returns: Found  1 space group operations
 (whereof  1 operations were pure point group operations)
 out of a pool of  4 trial point group operations.


The dynamic configuration has the point symmetry C_1 .


 Subroutine INISYM returns: Found  1 space group operations
 (whereof  1 operations are pure point group operations),
 and found     1 'primitive' translations

 
 

Automatic generation of k-mesh.
 generate k-points for:    5    5    1
Space group operators:
 irot       det(A)        alpha          n_x          n_y          n_z        tau_x        tau_y        tau_z
    1     1.000000     0.000000     1.000000     0.000000     0.000000     0.000000     0.000000     0.000000
 
 Subroutine IBZKPT returns following result:
 ===========================================
 
 Found     13 irreducible k-points:
 
 Following reciprocal coordinates:
            Coordinates               Weight
  0.000000  0.000000  0.000000      1.000000
  0.200000  0.000000  0.000000      2.000000
  0.400000  0.000000  0.000000      2.000000
  0.000000  0.200000  0.000000      2.000000
  0.200000  0.200000  0.000000      2.000000
  0.400000  0.200000  0.000000      2.000000
 -0.400000  0.200000  0.000000      2.000000
 -0.200000  0.200000  0.000000      2.000000
  0.000000  0.400000  0.000000      2.000000
  0.200000  0.400000  0.000000      2.000000
  0.400000  0.400000  0.000000      2.000000
 -0.400000  0.400000  0.000000      2.000000
 -0.200000  0.400000  0.000000      2.000000
 
 Following cartesian coordinates:
            Coordinates               Weight
  0.000000  0.000000  0.000000      1.000000
  0.020311 -0.011741  0.000000      2.000000
  0.040623 -0.023482  0.000000      2.000000
  0.000000  0.023451  0.000000      2.000000
  0.020311  0.011710  0.000000      2.000000
  0.040623 -0.000032  0.000000      2.000000
 -0.040623  0.046933  0.000000      2.000000
 -0.020311  0.035192  0.000000      2.000000
  0.000000  0.046902  0.000000      2.000000
  0.020311  0.035160  0.000000      2.000000
  0.040623  0.023419  0.000000      2.000000
 -0.040623  0.070384  0.000000      2.000000
 -0.020311  0.058643  0.000000      2.000000
 
 TETIRR: Found     72 inequivalent tetrahedra from      150


--------------------------------------------------------------------------------------------------------




 Dimension of arrays:
   k-points           NKPTS =     13   k-points in BZ     NKDIM =     13   number of bands    NBANDS=    156
   number of dos      NEDOS =    301   number of ions     NIONS =     62
   non local maximal  LDIM  =      4   non local SUM 2l+1 LMDIM =      8
   total plane-waves  NPLWV = ******
   max r-space proj   IRMAX =      1   max aug-charges    IRDMAX=  12631
   dimension x,y,z NGX =    96 NGY =   96 NGZ =  480
   dimension x,y,z NGXF=   192 NGYF=  192 NGZF=  960
   support grid    NGXF=   192 NGYF=  192 NGZF=  960
   ions per type =              62
   NGX,Y,Z   is equivalent  to a cutoff of  16.21, 16.20, 15.96 a.u.
   NGXF,Y,Z  is equivalent  to a cutoff of  32.42, 32.40, 31.92 a.u.

 SYSTEM =  unknown system                          
 POSCAR =  POSCAR file written by OVITO Basic 3.7.1

 Startparameter for this run:
   NWRITE =      2    write-flag & timer
   PREC   = accura    normal or accurate (medium, high low for compatibility)
   ISTART =      0    job   : 0-new  1-cont  2-samecut
   ICHARG =      2    charge: 1-file 2-atom 10-const
   ISPIN  =      1    spin polarized calculation?
   LNONCOLLINEAR =      F non collinear calculations
   LSORBIT =      F    spin-orbit coupling
   INIWAV =      1    electr: 0-lowe 1-rand  2-diag
   LASPH  =      F    aspherical Exc in radial PAW
   METAGGA=      F    non-selfconsistent MetaGGA calc.

 Electronic Relaxation 1
   ENCUT  =  850.0 eV  62.47 Ry    7.90 a.u.  23.41 23.42118.86*2*pi/ulx,y,z
   ENINI  =  850.0     initial cutoff
   ENAUG  =  644.9 eV  augmentation charge cutoff
   NELM   =    150;   NELMIN=  2; NELMDL= -5     # of ELM steps 
   EDIFF  = 0.1E-06   stopping-criterion for ELM
   LREAL  =      F    real-space projection
   NLSPLINE    = F    spline interpolate recip. space projectors
   LCOMPAT=      F    compatible to vasp.4.4
   GGA_COMPAT  = T    GGA compatible to vasp.4.4-vasp.4.6
   LMAXPAW     = -100 max onsite density
   LMAXMIX     =    2 max onsite mixed and CHGCAR
   VOSKOWN=      0    Vosko Wilk Nusair interpolation
   ROPT   =    0.00000
 Ionic relaxation
   EDIFFG = 0.1E-01   stopping-criterion for IOM
   NSW    =   1000    number of steps for IOM
   NBLOCK =      1;   KBLOCK =   1000    inner block; outer block 
   IBRION =      1    ionic relax: 0-MD 1-quasi-New 2-CG
   NFREE  =      0    steps in history (QN), initial steepest desc. (CG)
   ISIF   =      3    stress and relaxation
   IWAVPR =     11    prediction:  0-non 1-charg 2-wave 3-comb
   ISYM   =      2    0-nonsym 1-usesym 2-fastsym
   LCORR  =      T    Harris-Foulkes like correction to forces

   POTIM  = 0.5000    time-step for ionic-motion
   TEIN   =    0.0    initial temperature
   TEBEG  =    0.0;   TEEND  =   0.0 temperature during run
   SMASS  =  -3.00    Nose mass-parameter (am)
   estimated Nose-frequenzy (Omega)   =  0.10E-29 period in steps =****** mass=  -0.222E-26a.u.
   SCALEE = 1.0000    scale energy and forces
   NPACO  =    256;   APACO  = 16.0  distance and # of slots for P.C.
   PSTRESS=    0.0 pullay stress

  Mass of Ions in am
   POMASS =  12.01
  Ionic Valenz
   ZVAL   =   4.00
  Atomic Wigner-Seitz radii
   RWIGS  =  -1.00
  virtual crystal weights 
   VCA    =   1.00
   NELECT =     248.0000    total number of electrons
   NUPDOWN=      -1.0000    fix difference up-down

 DOS related values:
   EMIN   =  10.00;   EMAX   =-10.00  energy-range for DOS
   EFERMI =   0.00
   ISMEAR =    -5;   SIGMA  =   0.20  broadening in eV -4-tet -1-fermi 0-gaus

 Electronic relaxation 2 (details)
   IALGO  =     38    algorithm
   LDIAG  =      T    sub-space diagonalisation (order eigenvalues)
   LSUBROT=      F    optimize rotation matrix (better conditioning)
   TURBO    =      0    0=normal 1=particle mesh
   IRESTART =      0    0=no restart 2=restart with 2 vectors
   NREBOOT  =      0    no. of reboots
   NMIN     =      0    reboot dimension
   EREF     =   0.00    reference energy to select bands
   IMIX   =      4    mixing-type and parameters
     AMIX     =   0.40;   BMIX     =  1.00
     AMIX_MAG =   1.60;   BMIX_MAG =  1.00
     AMIN     =   0.10
     WC   =   100.;   INIMIX=   1;  MIXPRE=   1;  MAXMIX= -45

 Intra band minimization:
   WEIMIN = 0.0010     energy-eigenvalue tresh-hold
   EBREAK =  0.16E-09  absolut break condition
   DEPER  =   0.30     relativ break condition  

   TIME   =   0.40     timestep for ELM

  volume/ion in A,a.u.               =      67.72       457.02
  Fermi-wavevector in a.u.,A,eV,Ry     =   0.637550  1.204795  5.530362  0.406470
  Thomas-Fermi vector in A             =   1.702594
 
 Write flags
   LWAVE        =      F    write WAVECAR
   LDOWNSAMPLE  =      F    k-point downsampling of WAVECAR
   LCHARG       =      F    write CHGCAR
   LVTOT        =      F    write LOCPOT, total local potential
   LVHAR        =      F    write LOCPOT, Hartree potential only
   LELF         =      F    write electronic localiz. function (ELF)
   LORBIT       =      0    0 simple, 1 ext, 2 COOP (PROOUT), +10 PAW based schemes


 Dipole corrections
   LMONO  =      F    monopole corrections only (constant potential shift)
   LDIPOL =      F    correct potential (dipole corrections)
   IDIPOL =      0    1-x, 2-y, 3-z, 4-all directions 
   EPSILON=  1.0000000 bulk dielectric constant

 Exchange correlation treatment:
   GGA     =    --    GGA type
   LEXCH   =     8    internal setting for exchange type
   VOSKOWN=      0    Vosko Wilk Nusair interpolation
   LHFCALC =     F    Hartree Fock is set to
   LHFONE  =     F    Hartree Fock one center treatment
   AEXX    =    0.0000 exact exchange contribution

 Linear response parameters
   LEPSILON=     F    determine dielectric tensor
   LRPA    =     F    only Hartree local field effects (RPA)
   LNABLA  =     F    use nabla operator in PAW spheres
   LVEL    =     F    velocity operator in full k-point grid
   LINTERFAST=   F  fast interpolation
   KINTER  =     0    interpolate to denser k-point grid
   CSHIFT  =0.1000    complex shift for real part using Kramers Kronig
   OMEGAMAX=  -1.0    maximum frequency
   DEG_THRESHOLD= 0.2000000E-02 threshold for treating states as degnerate
   RTIME   =   -0.100 relaxation time in fs
  (WPLASMAI=    0.000 imaginary part of plasma frequency in eV, 0.658/RTIME)
   DFIELD  = 0.0000000 0.0000000 0.0000000 field for delta impulse in time
 
 Orbital magnetization related:
   ORBITALMAG=     F  switch on orbital magnetization
   LCHIMAG   =     F  perturbation theory with respect to B field
   DQ        =  0.001000  dq finite difference perturbation B field
   LLRAUG    =     F  two centre corrections for induced B field



--------------------------------------------------------------------------------------------------------


 quasi-Newton-method for relaxation of ions
 charge density and potential will be updated during run
 non-spin polarized calculation
 Variant of blocked Davidson
 Davidson routine will perform the subspace rotation
 perform sub-space diagonalisation
    after iterative eigenvector-optimisation
 modified Broyden-mixing scheme, WC =      100.0
 initial mixing is a Kerker type mixing with AMIX =  0.4000 and BMIX =      1.0000
 Hartree-type preconditioning will be used
 using additional bands           32
 reciprocal scheme for non local part
 use partial core corrections
 calculate Harris-corrections to forces 
   (improved forces if not selfconsistent)
 use gradient corrections 
 use of overlap-Matrix (Vanderbilt PP)
 Fermi weights with tetrahedron method with Bloechl corrections


--------------------------------------------------------------------------------------------------------


  energy-cutoff  :      850.00
  volume of cell :     4198.88
      direct lattice vectors                 reciprocal lattice vectors
     9.846720000  0.000000000  0.000000000     0.101556660 -0.058706163  0.000000000
     4.930000000  8.528480000  0.000000000     0.000000000  0.117254188  0.000000000
     0.000000000  0.000000000 50.000000000     0.000000000  0.000000000  0.020000000

  length of vectors
     9.846720000  9.850881743 50.000000000     0.117303746  0.117254188  0.020000000


 
 k-points in units of 2pi/SCALE and weight: read from INCAR                         
   0.00000000  0.00000000  0.00000000       0.040
   0.02031133 -0.01174123  0.00000000       0.080
   0.04062266 -0.02348247  0.00000000       0.080
   0.00000000  0.02345084  0.00000000       0.080
   0.02031133  0.01170961  0.00000000       0.080
   0.04062266 -0.00003163  0.00000000       0.080
  -0.04062266  0.04693330  0.00000000       0.080
  -0.02031133  0.03519207  0.00000000       0.080
   0.00000000  0.04690168  0.00000000       0.080
   0.02031133  0.03516044  0.00000000       0.080
   0.04062266  0.02341921  0.00000000       0.080
  -0.04062266  0.07038414  0.00000000       0.080
  -0.02031133  0.05864291  0.00000000       0.080
 
 k-points in reciprocal lattice and weights: read from INCAR                         
   0.00000000  0.00000000  0.00000000       0.040
   0.20000000  0.00000000  0.00000000       0.080
   0.40000000  0.00000000  0.00000000       0.080
   0.00000000  0.20000000  0.00000000       0.080
   0.20000000  0.20000000  0.00000000       0.080
   0.40000000  0.20000000  0.00000000       0.080
  -0.40000000  0.20000000  0.00000000       0.080
  -0.20000000  0.20000000  0.00000000       0.080
   0.00000000  0.40000000  0.00000000       0.080
   0.20000000  0.40000000  0.00000000       0.080
   0.40000000  0.40000000  0.00000000       0.080
  -0.40000000  0.40000000  0.00000000       0.080
  -0.20000000  0.40000000  0.00000000       0.080
 
 position of ions in fractional coordinates (direct lattice) 
   0.00042034  0.00035945  0.45749584
   0.08339851  0.08340258  0.45627531
   0.00042555  0.00036596  0.38250926
   0.08339673  0.08340309  0.38373320
   0.99866874  0.25054577  0.45536203
   0.08341520  0.33289959  0.45626585
   0.99867560  0.25054485  0.38464434
   0.08341295  0.33290881  0.38374214
   0.00041292  0.49896431  0.45748135
   0.08408213  0.58279119  0.45591511
   0.00041990  0.49895819  0.38252243
   0.08408595  0.58279795  0.38408358
   0.99997967  0.74988911  0.45721279
   0.08409652  0.83282933  0.45592510
   0.99998468  0.74988798  0.38278437
   0.08410234  0.83282885  0.38407455
   0.25056023  0.99867548  0.45534460
   0.33291295  0.08340865  0.45624794
   0.25055780  0.99868257  0.38466141
   0.33292248  0.08340772  0.38375965
   0.25053795  0.25050355  0.45533856
   0.33378329  0.33372390  0.44970508
   0.25053352  0.25050362  0.38466742
   0.33378959  0.33373049  0.39029393
   0.24550476  0.50128449  0.44804756
   0.29230634  0.60369959  0.43431926
   0.24550899  0.50128508  0.39194839
   0.29231887  0.60369506  0.40567723
   0.24553331  0.75291226  0.44805518
   0.33380659  0.83216909  0.44971044
   0.24553990  0.75291318  0.39194129
   0.33381591  0.83216255  0.39028865
   0.49900761  0.00036102  0.45745949
   0.58284209  0.08397902  0.45589509
   0.49899748  0.00036983  0.38254350
   0.58284633  0.08398523  0.38410272
   0.50134462  0.24536135  0.44804095
   0.60376544  0.29216693  0.43431521
   0.50134376  0.24536648  0.39195539
   0.60376179  0.29217887  0.40568208
   0.60380378  0.60380973  0.43431627
   0.60380273  0.60381137  0.40568099
   0.50136607  0.75301887  0.44804382
   0.58284695  0.83291641  0.45589166
   0.50136929  0.75302290  0.39195309
   0.58285207  0.83291900  0.38410637
   0.74996574  0.99987699  0.45719809
   0.83287393  0.08402251  0.45592277
   0.74996477  0.99988171  0.38279816
   0.83287078  0.08403181  0.38407676
   0.75294647  0.24546385  0.44806549
   0.83212590  0.33379958  0.44973034
   0.75294624  0.24547019  0.39193168
   0.83211671  0.33381094  0.39026985
   0.75297045  0.50134057  0.44806064
   0.83291010  0.58282392  0.45590900
   0.75297516  0.50134434  0.39193675
   0.83290917  0.58283174  0.38408983
   0.74995227  0.74990164  0.45718765
   0.83330423  0.83323813  0.45840992
   0.74995424  0.74990387  0.38280836
   0.83330707  0.83324695  0.38158422
 
 position of ions in cartesian coordinates  (Angst):
   0.00591107  0.00306560 22.87479219
   1.23237651  0.71129721 22.81376566
   0.00599450  0.00312108 19.12546311
   1.23236146  0.71130157 19.18666018
  11.06880208  2.13677456 22.76810128
   2.46256111  2.83912753 22.81329245
  11.06886509  2.13676674 19.23221687
   2.46258436  2.83920613 19.18710706
   2.46395998  4.25540712 22.87406745
   3.70109381  4.97032302 22.79575564
   2.46399849  4.25535496 19.12612161
   3.70116470  4.97038066 19.20417916
  13.54347316  6.39541426 22.86063946
   4.93392348  7.10276832 22.79625504
  13.54351692  6.39540466 19.13921849
   4.93397848  7.10276422 19.20372764
   7.39066656  8.51718387 22.76722988
   3.68930523  0.71134904 22.81239677
   7.39067761  8.51724432 19.23307075
   3.68939449  0.71134107 19.18798257
   3.70195957  2.13641455 22.76692803
   4.93192939  2.84615758 22.48525405
   3.70191625  2.13641514 19.23337110
   4.93202401  2.84621385 19.51469629
   4.88874914  4.27519476 22.40237795
   5.85449765  5.14863988 21.71596312
   4.88879378  4.27519981 19.59741966
   5.85459875  5.14860127 20.28386156
   6.12955522  6.42119711 22.40275904
   7.38949360  7.09713741 22.48552210
   6.12962462  6.42120499 19.59706426
   7.38955313  7.09708166 19.51443237
   4.91536808  0.00307894 22.87297452
   6.15309947  0.71621339 22.79475465
   4.91531168  0.00315407 19.12717513
   6.15317178  0.71626639 19.20513605
   6.14623156  2.09255934 22.40204733
   7.38549215  2.49173978 21.71576060
   6.14624837  2.09260313 19.59776961
   7.38551514  2.49184162 20.28410386
   8.92226876  5.14957923 21.71581360
   8.92226652  5.14959323 20.28404947
   8.64919432  6.42210635 22.40219097
   9.84540862  7.10351098 22.79458281
   8.64924594  6.42214072 19.59765451
   9.84547181  7.10353306 19.20531852
  12.31409618  8.52743093 22.85990470
   8.61530734  0.71658431 22.79613825
  12.31410994  8.52747115 19.13990809
   8.61532213  0.71666358 19.20383804
   8.62418984  2.09343357 22.40327429
   9.83934268  2.84680304 22.48651718
   8.62421880  2.09348757 19.59658417
   9.83930814  2.84689988 19.51349239
   9.88589815  4.27567301 22.40303193
  11.07475443  4.97060215 22.79545006
   9.88596322  4.27570521 19.59683757
  11.07478383  4.97066882 19.20449140
  11.08158511  6.39552114 22.85938263
  12.31317742  7.10625472 22.92049613
  11.08161550  6.39554017 19.14041798
  12.31324885  7.10632995 19.07921079
 


--------------------------------------------------------------------------------------------------------


 k-point  1 :   0.0000 0.0000 0.0000  plane waves:  236399
 k-point  2 :   0.2000 0.0000 0.0000  plane waves:  236384
 k-point  3 :   0.4000 0.0000 0.0000  plane waves:  236183
 k-point  4 :   0.0000 0.2000 0.0000  plane waves:  236383
 k-point  5 :   0.2000 0.2000 0.0000  plane waves:  236384
 k-point  6 :   0.4000 0.2000 0.0000  plane waves:  236217
 k-point  7 :  -0.4000 0.2000 0.0000  plane waves:  236260
 k-point  8 :  -0.2000 0.2000 0.0000  plane waves:  236225
 k-point  9 :   0.0000 0.4000 0.0000  plane waves:  236213
 k-point 10 :   0.2000 0.4000 0.0000  plane waves:  236205
 k-point 11 :   0.4000 0.4000 0.0000  plane waves:  236198
 k-point 12 :  -0.4000 0.4000 0.0000  plane waves:  236260
 k-point 13 :  -0.2000 0.4000 0.0000  plane waves:  236256

 maximum and minimum number of plane-waves per node :     29637    29480

 maximum number of plane-waves:    236399
 maximum index in each direction: 
   IXMAX=   23   IYMAX=   23   IZMAX=  118
   IXMIN=  -23   IYMIN=  -23   IZMIN= -118


 parallel 3D FFT for wavefunctions:
    minimum data exchange during FFTs selected (reduces bandwidth)
 parallel 3D FFT for charge:
    minimum data exchange during FFTs selected (reduces bandwidth)


 total amount of memory used by VASP MPI-rank0   343151. kBytes
=======================================================================

   base      :      30000. kBytes
   nonl-proj :      53997. kBytes
   fftplans  :      41100. kBytes
   grid      :      57575. kBytes
   one-center:         24. kBytes
   wavefun   :     160455. kBytes
 
     INWAV:  cpu time    0.0000: real time    0.0000
 Broyden mixing: mesh for mixing (old mesh)
   NGX = 47   NGY = 47   NGZ =237
  (NGX  =192   NGY  =192   NGZ  =960)
  gives a total of 523533 points

 initial charge density was supplied:
 charge density of overlapping atoms calculated
 number of electron     248.0000000 magnetization 
 keeping initial charge density in first step


--------------------------------------------------------------------------------------------------------


 Maximum index for augmentation-charges          578 (set IRDMAX)


--------------------------------------------------------------------------------------------------------


 First call to EWALD:  gamma=   0.110
 Maximum number of real-space cells 5x 5x 1
 Maximum number of reciprocal cells 2x 2x 7

    FEWALD:  cpu time    0.0020: real time    0.0021


--------------------------------------- Iteration      1(   1)  ---------------------------------------


    POTLOK:  cpu time    0.3994: real time    0.4431
    SETDIJ:  cpu time    0.0048: real time    0.0049
     EDDAV:  cpu time   70.5991: real time   70.7700
 BZINTS: Fermi energy:  7.791804;248.000000 electrons
         Band energy:-493.960244;  BLOECHL correction: -0.041031
       DOS:  cpu time    0.0126: real time    0.0126
    --------------------------------------------
      LOOP:  cpu time   71.0159: real time   71.2307

 eigenvalue-minimisations  :  4356
 total energy-change (2. order) : 0.2987092E+04  (-0.1016526E+05)
 number of electron     248.0000000 magnetization 
 augmentation part      248.0000000 magnetization 

 Free energy of the ion-electron system (eV)
  ---------------------------------------------------
  alpha Z        PSCENC =        75.20389891
  Ewald energy   TEWEN  =    209383.82885611
  -Hartree energ DENC   =   -215883.27378976
  -exchange      EXHF   =         0.00000000
  -V(xc)+E(xc)   XCENC  =       816.99935352
  PAW double counting   =      6728.36687556    -6763.67003570
  entropy T*S    EENTRO =         0.00000000
  eigenvalues    EBANDS =      -493.96024376
  atomic energy  EATOM  =      9123.59704331
  Solvation  Ediel_sol  =         0.00000000
  ---------------------------------------------------
  free energy    TOTEN  =      2987.09195820 eV

  energy without entropy =     2987.09195820  energy(sigma->0) =     2987.09195820


--------------------------------------------------------------------------------------------------------




--------------------------------------- Iteration      1(   2)  ---------------------------------------


     EDDAV:  cpu time   98.7311: real time   99.0923
 BZINTS: Fermi energy: -1.478811;248.000000 electrons
         Band energy:***********;  BLOECHL correction: -0.027514
       DOS:  cpu time    0.0123: real time    0.0123
    --------------------------------------------
      LOOP:  cpu time   98.7433: real time   99.1046

 eigenvalue-minimisations  :  6408
 total energy-change (2. order) :-0.2844201E+04  (-0.2678943E+04)
 number of electron     248.0000000 magnetization 
 augmentation part      248.0000000 magnetization 

 Free energy of the ion-electron system (eV)
  ---------------------------------------------------
  alpha Z        PSCENC =        75.20389891
  Ewald energy   TEWEN  =    209383.82885611
  -Hartree energ DENC   =   -215883.27378976
  -exchange      EXHF   =         0.00000000
  -V(xc)+E(xc)   XCENC  =       816.99935352
  PAW double counting   =      6728.36687556    -6763.67003570
  entropy T*S    EENTRO =         0.00000000
  eigenvalues    EBANDS =     -3338.16119479
  atomic energy  EATOM  =      9123.59704331
  Solvation  Ediel_sol  =         0.00000000
  ---------------------------------------------------
  free energy    TOTEN  =       142.89100718 eV

  energy without entropy =      142.89100718  energy(sigma->0) =      142.89100718


--------------------------------------------------------------------------------------------------------




--------------------------------------- Iteration      1(   3)  ---------------------------------------


     EDDAV:  cpu time   80.9754: real time   81.1801
 BZINTS: Fermi energy: -6.454894;248.000000 electrons
         Band energy:***********;  BLOECHL correction:  0.000000
       DOS:  cpu time    0.0023: real time    0.0023
    --------------------------------------------
      LOOP:  cpu time   80.9777: real time   81.1825

 eigenvalue-minimisations  :  5004
 total energy-change (2. order) :-0.7003995E+03  (-0.6971226E+03)
 number of electron     248.0000000 magnetization 
 augmentation part      248.0000000 magnetization 

 Free energy of the ion-electron system (eV)
  ---------------------------------------------------
  alpha Z        PSCENC =        75.20389891
  Ewald energy   TEWEN  =    209383.82885611
  -Hartree energ DENC   =   -215883.27378976
  -exchange      EXHF   =         0.00000000
  -V(xc)+E(xc)   XCENC  =       816.99935352
  PAW double counting   =      6728.36687556    -6763.67003570
  entropy T*S    EENTRO =         0.00000000
  eigenvalues    EBANDS =     -4038.56065404
  atomic energy  EATOM  =      9123.59704331
  Solvation  Ediel_sol  =         0.00000000
  ---------------------------------------------------
  free energy    TOTEN  =      -557.50845207 eV

  energy without entropy =     -557.50845207  energy(sigma->0) =     -557.50845207


--------------------------------------------------------------------------------------------------------




--------------------------------------- Iteration      1(   4)  ---------------------------------------


     EDDAV:  cpu time   80.1610: real time   80.3595
 BZINTS: Fermi energy: -6.756907;248.000000 electrons
         Band energy:***********;  BLOECHL correction:  0.000000
       DOS:  cpu time    0.0023: real time    0.0023
    --------------------------------------------
      LOOP:  cpu time   80.1633: real time   80.3618

 eigenvalue-minimisations  :  4944
 total energy-change (2. order) :-0.3519275E+02  (-0.3476594E+02)
 number of electron     248.0000000 magnetization 
 augmentation part      248.0000000 magnetization 

 Free energy of the ion-electron system (eV)
  ---------------------------------------------------
  alpha Z        PSCENC =        75.20389891
  Ewald energy   TEWEN  =    209383.82885611
  -Hartree energ DENC   =   -215883.27378976
  -exchange      EXHF   =         0.00000000
  -V(xc)+E(xc)   XCENC  =       816.99935352
  PAW double counting   =      6728.36687556    -6763.67003570
  entropy T*S    EENTRO =         0.00000000
  eigenvalues    EBANDS =     -4073.75340722
  atomic energy  EATOM  =      9123.59704331
  Solvation  Ediel_sol  =         0.00000000
  ---------------------------------------------------
  free energy    TOTEN  =      -592.70120525 eV

  energy without entropy =     -592.70120525  energy(sigma->0) =     -592.70120525


--------------------------------------------------------------------------------------------------------




--------------------------------------- Iteration      1(   5)  ---------------------------------------


     EDDAV:  cpu time   87.1903: real time   87.4028
 BZINTS: Fermi energy: -6.735494;248.000000 electrons
         Band energy:***********;  BLOECHL correction:  0.000000
       DOS:  cpu time    0.0026: real time    0.0026
    CHARGE:  cpu time    3.7308: real time    3.7397
    MIXING:  cpu time    0.0112: real time    0.0114
    --------------------------------------------
      LOOP:  cpu time   90.9350: real time   91.1566

 eigenvalue-minimisations  :  5484
 total energy-change (2. order) :-0.1004026E+01  (-0.9943711E+00)
 number of electron     247.9999990 magnetization 
 augmentation part        6.4131197 magnetization 

 Broyden mixing:
  rms(total) = 0.34056E+01    rms(broyden)= 0.34056E+01
  rms(prec ) = 0.34445E+01
  weight for this iteration     100.00

 Free energy of the ion-electron system (eV)
  ---------------------------------------------------
  alpha Z        PSCENC =        75.20389891
  Ewald energy   TEWEN  =    209383.82885611
  -Hartree energ DENC   =   -215883.27378976
  -exchange      EXHF   =         0.00000000
  -V(xc)+E(xc)   XCENC  =       816.99935352
  PAW double counting   =      6728.36687556    -6763.67003570
  entropy T*S    EENTRO =         0.00000000
  eigenvalues    EBANDS =     -4074.75743313
  atomic energy  EATOM  =      9123.59704331
  Solvation  Ediel_sol  =         0.00000000
  ---------------------------------------------------
  free energy    TOTEN  =      -593.70523117 eV

  energy without entropy =     -593.70523117  energy(sigma->0) =     -593.70523117


--------------------------------------------------------------------------------------------------------




--------------------------------------- Iteration      1(   6)  ---------------------------------------


    POTLOK:  cpu time    0.3427: real time    0.3486
    SETDIJ:  cpu time    0.0046: real time    0.0046
     EDDAV:  cpu time   75.5272: real time   75.7095
 BZINTS: Fermi energy: -5.683014;248.000000 electrons
         Band energy:***********;  BLOECHL correction:  0.000000
       DOS:  cpu time    0.0023: real time    0.0023
    CHARGE:  cpu time    3.7927: real time    3.8018
    MIXING:  cpu time    0.0122: real time    0.0123
    --------------------------------------------
      LOOP:  cpu time   79.6817: real time   79.8791

 eigenvalue-minimisations  :  4608
 total energy-change (2. order) : 0.2648234E+02  (-0.2612210E+01)
 number of electron     247.9999990 magnetization 
 augmentation part        6.1511751 magnetization 

 Broyden mixing:
  rms(total) = 0.19866E+01    rms(broyden)= 0.19866E+01
  rms(prec ) = 0.20050E+01
  weight for this iteration     100.00

 eigenvalues of (default mixing * dielectric matrix)
  average eigenvalue GAMMA=   2.1878
  2.1878

 Free energy of the ion-electron system (eV)
  ---------------------------------------------------
  alpha Z        PSCENC =        75.20389891
  Ewald energy   TEWEN  =    209383.82885611
  -Hartree energ DENC   =   -216214.20414982
  -exchange      EXHF   =         0.00000000
  -V(xc)+E(xc)   XCENC  =       831.64900193
  PAW double counting   =     12151.54624058   -12191.18871565
  entropy T*S    EENTRO =         0.00000000
  eigenvalues    EBANDS =     -3727.65506291
  atomic energy  EATOM  =      9123.59704331
  Solvation  Ediel_sol  =         0.00000000
  ---------------------------------------------------
  free energy    TOTEN  =      -567.22288754 eV

  energy without entropy =     -567.22288754  energy(sigma->0) =     -567.22288754


--------------------------------------------------------------------------------------------------------




--------------------------------------- Iteration      1(   7)  ---------------------------------------


    POTLOK:  cpu time    0.3479: real time    0.3563
    SETDIJ:  cpu time    0.0041: real time    0.0041
     EDDAV:  cpu time   74.5356: real time   74.7131
 BZINTS: Fermi energy: -4.256642;248.000000 electrons
         Band energy:***********;  BLOECHL correction:  0.000000
       DOS:  cpu time    0.0027: real time    0.0027
    CHARGE:  cpu time    3.7512: real time    3.7602
    MIXING:  cpu time    0.0110: real time    0.0110
    --------------------------------------------
      LOOP:  cpu time   78.6525: real time   78.8475

 eigenvalue-minimisations  :  4536
 total energy-change (2. order) : 0.8981524E+01  (-0.3404972E+01)
 number of electron     247.9999990 magnetization 
 augmentation part        5.8227204 magnetization 

 Broyden mixing:
  rms(total) = 0.52918E+00    rms(broyden)= 0.52917E+00
  rms(prec ) = 0.53186E+00
  weight for this iteration     100.00

 eigenvalues of (default mixing * dielectric matrix)
  average eigenvalue GAMMA=   2.0768
  1.9994  2.1543

 Free energy of the ion-electron system (eV)
  ---------------------------------------------------
  alpha Z        PSCENC =        75.20389891
  Ewald energy   TEWEN  =    209383.82885611
  -Hartree energ DENC   =   -216660.20590238
  -exchange      EXHF   =         0.00000000
  -V(xc)+E(xc)   XCENC  =       850.35717530
  PAW double counting   =     22425.43368753   -22468.91562804
  entropy T*S    EENTRO =         0.00000000
  eigenvalues    EBANDS =     -3287.54049453
  atomic energy  EATOM  =      9123.59704331
  Solvation  Ediel_sol  =         0.00000000
  ---------------------------------------------------
  free energy    TOTEN  =      -558.24136378 eV

  energy without entropy =     -558.24136378  energy(sigma->0) =     -558.24136378


--------------------------------------------------------------------------------------------------------




--------------------------------------- Iteration      1(   8)  ---------------------------------------


    POTLOK:  cpu time    0.3423: real time    0.3497
    SETDIJ:  cpu time    0.0039: real time    0.0039
     EDDAV:  cpu time   77.8876: real time   78.0744
 BZINTS: Fermi energy: -4.036303;248.000000 electrons
         Band energy:***********;  BLOECHL correction:  0.000000
       DOS:  cpu time    0.0023: real time    0.0023
    CHARGE:  cpu time    3.8117: real time    3.8208
    MIXING:  cpu time    0.0114: real time    0.0115
    --------------------------------------------
      LOOP:  cpu time   82.0592: real time   82.2625

 eigenvalue-minimisations  :  4800
 total energy-change (2. order) : 0.5567178E-01  (-0.1279726E+00)
 number of electron     247.9999990 magnetization 
 augmentation part        5.8193380 magnetization 

 Broyden mixing:
  rms(total) = 0.10531E+00    rms(broyden)= 0.10531E+00
  rms(prec ) = 0.10924E+00
  weight for this iteration     100.00

 eigenvalues of (default mixing * dielectric matrix)
  average eigenvalue GAMMA=   1.8489
  1.1634  2.4743  1.9091

 Free energy of the ion-electron system (eV)
  ---------------------------------------------------
  alpha Z        PSCENC =        75.20389891
  Ewald energy   TEWEN  =    209383.82885611
  -Hartree energ DENC   =   -216708.94239793
  -exchange      EXHF   =         0.00000000
  -V(xc)+E(xc)   XCENC  =       849.78744617
  PAW double counting   =     24624.83380685   -24666.93268312
  entropy T*S    EENTRO =         0.00000000
  eigenvalues    EBANDS =     -3239.56166232
  atomic energy  EATOM  =      9123.59704331
  Solvation  Ediel_sol  =         0.00000000
  ---------------------------------------------------
  free energy    TOTEN  =      -558.18569200 eV

  energy without entropy =     -558.18569200  energy(sigma->0) =     -558.18569200


--------------------------------------------------------------------------------------------------------




--------------------------------------- Iteration      1(   9)  ---------------------------------------


    POTLOK:  cpu time    0.3436: real time    0.3501
    SETDIJ:  cpu time    0.0038: real time    0.0038
     EDDAV:  cpu time   76.8232: real time   77.0143
 BZINTS: Fermi energy: -3.863364;248.000000 electrons
         Band energy:***********;  BLOECHL correction:  0.000000
       DOS:  cpu time    0.0027: real time    0.0027
    CHARGE:  cpu time    3.7088: real time    3.7176
    MIXING:  cpu time    0.0131: real time    0.0131
    --------------------------------------------
      LOOP:  cpu time   80.8951: real time   81.1016

 eigenvalue-minimisations  :  4776
 total energy-change (2. order) : 0.3376564E-01  (-0.1069844E-01)
 number of electron     247.9999990 magnetization 
 augmentation part        5.8124745 magnetization 

 Broyden mixing:
  rms(total) = 0.32593E-01    rms(broyden)= 0.32593E-01
  rms(prec ) = 0.38818E-01
  weight for this iteration     100.00

 eigenvalues of (default mixing * dielectric matrix)
  average eigenvalue GAMMA=   1.6384
  2.3626  2.0517  1.0695  1.0695

 Free energy of the ion-electron system (eV)
  ---------------------------------------------------
  alpha Z        PSCENC =        75.20389891
  Ewald energy   TEWEN  =    209383.82885611
  -Hartree energ DENC   =   -216750.79541043
  -exchange      EXHF   =         0.00000000
  -V(xc)+E(xc)   XCENC  =       850.26771985
  PAW double counting   =     25182.53650953   -25224.44034594
  entropy T*S    EENTRO =         0.00000000
  eigenvalues    EBANDS =     -3198.35019771
  atomic energy  EATOM  =      9123.59704331
  Solvation  Ediel_sol  =         0.00000000
  ---------------------------------------------------
  free energy    TOTEN  =      -558.15192636 eV

  energy without entropy =     -558.15192636  energy(sigma->0) =     -558.15192636


--------------------------------------------------------------------------------------------------------




--------------------------------------- Iteration      1(  10)  ---------------------------------------


    POTLOK:  cpu time    0.3584: real time    0.3653
    SETDIJ:  cpu time    0.0039: real time    0.0040
     EDDAV:  cpu time   75.9961: real time   76.1896
 BZINTS: Fermi energy: -3.800532;248.000000 electrons
         Band energy:***********;  BLOECHL correction:  0.000000
       DOS:  cpu time    0.0026: real time    0.0026
    CHARGE:  cpu time    3.6973: real time    3.7062
    MIXING:  cpu time    0.0122: real time    0.0122
    --------------------------------------------
      LOOP:  cpu time   80.0706: real time   80.2799

 eigenvalue-minimisations  :  4692
 total energy-change (2. order) : 0.7551396E-02  (-0.3249255E-02)
 number of electron     247.9999990 magnetization 
 augmentation part        5.8098092 magnetization 

 Broyden mixing:
  rms(total) = 0.29493E-01    rms(broyden)= 0.29493E-01
  rms(prec ) = 0.35025E-01
  weight for this iteration     100.00

 eigenvalues of (default mixing * dielectric matrix)
  average eigenvalue GAMMA=   1.5142
  2.2678  2.2678  1.2855  1.2855  0.4643

 Free energy of the ion-electron system (eV)
  ---------------------------------------------------
  alpha Z        PSCENC =        75.20389891
  Ewald energy   TEWEN  =    209383.82885611
  -Hartree energ DENC   =   -216772.05061207
  -exchange      EXHF   =         0.00000000
  -V(xc)+E(xc)   XCENC  =       850.33688610
  PAW double counting   =     25119.92303925   -25161.78024083
  entropy T*S    EENTRO =         0.00000000
  eigenvalues    EBANDS =     -3177.20324575
  atomic energy  EATOM  =      9123.59704331
  Solvation  Ediel_sol  =         0.00000000
  ---------------------------------------------------
  free energy    TOTEN  =      -558.14437496 eV

  energy without entropy =     -558.14437496  energy(sigma->0) =     -558.14437496


--------------------------------------------------------------------------------------------------------




--------------------------------------- Iteration      1(  11)  ---------------------------------------


    POTLOK:  cpu time    0.3394: real time    0.3445
    SETDIJ:  cpu time    0.0039: real time    0.0039
     EDDAV:  cpu time   73.7631: real time   73.9405
 BZINTS: Fermi energy: -3.728082;248.000000 electrons
         Band energy:***********;  BLOECHL correction:  0.000000
       DOS:  cpu time    0.0023: real time    0.0023
    CHARGE:  cpu time    3.7139: real time    3.7228
    MIXING:  cpu time    0.0126: real time    0.0126
    --------------------------------------------
      LOOP:  cpu time   77.8351: real time   78.0266

 eigenvalue-minimisations  :  4524
 total energy-change (2. order) : 0.6524215E-02  (-0.2401766E-02)
 number of electron     247.9999990 magnetization 
 augmentation part        5.8085785 magnetization 

 Broyden mixing:
  rms(total) = 0.19182E-01    rms(broyden)= 0.19181E-01
  rms(prec ) = 0.24279E-01
  weight for this iteration     100.00

 eigenvalues of (default mixing * dielectric matrix)
  average eigenvalue GAMMA=   1.5177
  2.4723  2.4723  1.6851  1.2264  0.8820  0.3682

 Free energy of the ion-electron system (eV)
  ---------------------------------------------------
  alpha Z        PSCENC =        75.20389891
  Ewald energy   TEWEN  =    209383.82885611
  -Hartree energ DENC   =   -216792.34266508
  -exchange      EXHF   =         0.00000000
  -V(xc)+E(xc)   XCENC  =       850.43625004
  PAW double counting   =     25082.58464593   -25124.41390774
  entropy T*S    EENTRO =         0.00000000
  eigenvalues    EBANDS =     -3157.03197224
  atomic energy  EATOM  =      9123.59704331
  Solvation  Ediel_sol  =         0.00000000
  ---------------------------------------------------
  free energy    TOTEN  =      -558.13785075 eV

  energy without entropy =     -558.13785075  energy(sigma->0) =     -558.13785075


--------------------------------------------------------------------------------------------------------




--------------------------------------- Iteration      1(  12)  ---------------------------------------


    POTLOK:  cpu time    0.3410: real time    0.3468
    SETDIJ:  cpu time    0.0041: real time    0.0041
     EDDAV:  cpu time   73.2410: real time   73.4198
 BZINTS: Fermi energy: -3.573796;248.000000 electrons
         Band energy:***********;  BLOECHL correction:  0.000000
       DOS:  cpu time    0.0026: real time    0.0026
    CHARGE:  cpu time    3.7189: real time    3.7278
    MIXING:  cpu time    0.0140: real time    0.0140
    --------------------------------------------
      LOOP:  cpu time   77.3216: real time   77.5151

 eigenvalue-minimisations  :  4500
 total energy-change (2. order) : 0.4619580E-02  (-0.1161553E-02)
 number of electron     247.9999990 magnetization 
 augmentation part        5.8063948 magnetization 

 Broyden mixing:
  rms(total) = 0.11298E-01    rms(broyden)= 0.11298E-01
  rms(prec ) = 0.15137E-01
  weight for this iteration     100.00

 eigenvalues of (default mixing * dielectric matrix)
  average eigenvalue GAMMA=   1.6459
  3.2845  2.4122  2.0596  1.2643  1.2643  0.8740  0.3622

 Free energy of the ion-electron system (eV)
  ---------------------------------------------------
  alpha Z        PSCENC =        75.20389891
  Ewald energy   TEWEN  =    209383.82885611
  -Hartree energ DENC   =   -216821.89318067
  -exchange      EXHF   =         0.00000000
  -V(xc)+E(xc)   XCENC  =       850.62699556
  PAW double counting   =     25075.02982460   -25116.84116988
  entropy T*S    EENTRO =         0.00000000
  eigenvalues    EBANDS =     -3127.68549912
  atomic energy  EATOM  =      9123.59704331
  Solvation  Ediel_sol  =         0.00000000
  ---------------------------------------------------
  free energy    TOTEN  =      -558.13323117 eV

  energy without entropy =     -558.13323117  energy(sigma->0) =     -558.13323117


--------------------------------------------------------------------------------------------------------




--------------------------------------- Iteration      1(  13)  ---------------------------------------


    POTLOK:  cpu time    0.3451: real time    0.3509
    SETDIJ:  cpu time    0.0038: real time    0.0038
     EDDAV:  cpu time   75.3166: real time   75.5020
 BZINTS: Fermi energy: -3.432923;248.000000 electrons
         Band energy:***********;  BLOECHL correction:  0.000000
       DOS:  cpu time    0.0026: real time    0.0026
    CHARGE:  cpu time    3.6705: real time    3.6792
    MIXING:  cpu time    0.0129: real time    0.0130
    --------------------------------------------
      LOOP:  cpu time   79.3514: real time   79.5514

 eigenvalue-minimisations  :  4608
 total energy-change (2. order) :-0.2342550E-02  (-0.9176869E-03)
 number of electron     247.9999990 magnetization 
 augmentation part        5.8032120 magnetization 

 Broyden mixing:
  rms(total) = 0.70212E-02    rms(broyden)= 0.70211E-02
  rms(prec ) = 0.88533E-02
  weight for this iteration     100.00

 eigenvalues of (default mixing * dielectric matrix)
  average eigenvalue GAMMA=   1.7289
  4.1040  2.4927  1.9174  1.8772  1.1259  0.9758  0.9758  0.3620

 Free energy of the ion-electron system (eV)
  ---------------------------------------------------
  alpha Z        PSCENC =        75.20389891
  Ewald energy   TEWEN  =    209383.82885611
  -Hartree energ DENC   =   -216858.36138496
  -exchange      EXHF   =         0.00000000
  -V(xc)+E(xc)   XCENC  =       850.85266142
  PAW double counting   =     25083.80678949   -25125.61592267
  entropy T*S    EENTRO =         0.00000000
  eigenvalues    EBANDS =     -3091.44751534
  atomic energy  EATOM  =      9123.59704331
  Solvation  Ediel_sol  =         0.00000000
  ---------------------------------------------------
  free energy    TOTEN  =      -558.13557372 eV

  energy without entropy =     -558.13557372  energy(sigma->0) =     -558.13557372


--------------------------------------------------------------------------------------------------------




--------------------------------------- Iteration      1(  14)  ---------------------------------------


    POTLOK:  cpu time    0.3480: real time    0.3705
    SETDIJ:  cpu time    0.0041: real time    0.0042
     EDDAV:  cpu time   73.4288: real time   73.6177
 BZINTS: Fermi energy: -3.362917;248.000000 electrons
         Band energy:***********;  BLOECHL correction:  0.000000
       DOS:  cpu time    0.0026: real time    0.0026
    CHARGE:  cpu time    3.7286: real time    3.7375
    MIXING:  cpu time    0.0139: real time    0.0139
    --------------------------------------------
      LOOP:  cpu time   77.5261: real time   77.7463

 eigenvalue-minimisations  :  4476
 total energy-change (2. order) :-0.4528748E-02  (-0.1309590E-03)
 number of electron     247.9999990 magnetization 
 augmentation part        5.8027167 magnetization 

 Broyden mixing:
  rms(total) = 0.37382E-02    rms(broyden)= 0.37382E-02
  rms(prec ) = 0.49069E-02
  weight for this iteration     100.00

 eigenvalues of (default mixing * dielectric matrix)
  average eigenvalue GAMMA=   1.8778
  5.4529  2.5636  2.3447  1.9664  1.1944  1.1944  0.9577  0.8637  0.3621

 Free energy of the ion-electron system (eV)
  ---------------------------------------------------
  alpha Z        PSCENC =        75.20389891
  Ewald energy   TEWEN  =    209383.82885611
  -Hartree energ DENC   =   -216875.71203236
  -exchange      EXHF   =         0.00000000
  -V(xc)+E(xc)   XCENC  =       850.87176573
  PAW double counting   =     25063.35581784   -25105.15682266
  entropy T*S    EENTRO =         0.00000000
  eigenvalues    EBANDS =     -3074.12862935
  atomic energy  EATOM  =      9123.59704331
  Solvation  Ediel_sol  =         0.00000000
  ---------------------------------------------------
  free energy    TOTEN  =      -558.14010246 eV

  energy without entropy =     -558.14010246  energy(sigma->0) =     -558.14010246


--------------------------------------------------------------------------------------------------------




--------------------------------------- Iteration      1(  15)  ---------------------------------------


    POTLOK:  cpu time    0.3413: real time    0.3469
    SETDIJ:  cpu time    0.0039: real time    0.0039
     EDDAV:  cpu time   71.2982: real time   71.5292
 BZINTS: Fermi energy: -3.312181;248.000000 electrons
         Band energy:***********;  BLOECHL correction:  0.000000
       DOS:  cpu time    0.0026: real time    0.0026
    CHARGE:  cpu time    3.7003: real time    3.7092
    MIXING:  cpu time    0.0145: real time    0.0145
    --------------------------------------------
      LOOP:  cpu time   75.3608: real time   75.6063

 eigenvalue-minimisations  :  4344
 total energy-change (2. order) :-0.4327743E-02  (-0.5444784E-04)
 number of electron     247.9999990 magnetization 
 augmentation part        5.8023553 magnetization 

 Broyden mixing:
  rms(total) = 0.23235E-02    rms(broyden)= 0.23235E-02
  rms(prec ) = 0.28951E-02
  weight for this iteration     100.00

 eigenvalues of (default mixing * dielectric matrix)
  average eigenvalue GAMMA=   1.9482
  6.1082  2.7683  2.6329  1.9108  1.3992  1.2255  1.2255  0.9246  0.9246  0.3621

 Free energy of the ion-electron system (eV)
  ---------------------------------------------------
  alpha Z        PSCENC =        75.20389891
  Ewald energy   TEWEN  =    209383.82885611
  -Hartree energ DENC   =   -216888.06883826
  -exchange      EXHF   =         0.00000000
  -V(xc)+E(xc)   XCENC  =       850.88770156
  PAW double counting   =     25056.79094642   -25098.59232045
  entropy T*S    EENTRO =         0.00000000
  eigenvalues    EBANDS =     -3061.79171783
  atomic energy  EATOM  =      9123.59704331
  Solvation  Ediel_sol  =         0.00000000
  ---------------------------------------------------
  free energy    TOTEN  =      -558.14443021 eV

  energy without entropy =     -558.14443021  energy(sigma->0) =     -558.14443021


--------------------------------------------------------------------------------------------------------




--------------------------------------- Iteration      1(  16)  ---------------------------------------


    POTLOK:  cpu time    0.3399: real time    0.3468
    SETDIJ:  cpu time    0.0039: real time    0.0039
     EDDAV:  cpu time   72.4318: real time   72.6142
 BZINTS: Fermi energy: -3.287127;248.000000 electrons
         Band energy:***********;  BLOECHL correction:  0.000000
       DOS:  cpu time    0.0026: real time    0.0026
    CHARGE:  cpu time    3.7168: real time    3.7257
    MIXING:  cpu time    0.0155: real time    0.0155
    --------------------------------------------
      LOOP:  cpu time   76.5105: real time   76.7087

 eigenvalue-minimisations  :  4368
 total energy-change (2. order) :-0.3043913E-02  (-0.1586626E-04)
 number of electron     247.9999990 magnetization 
 augmentation part        5.8021773 magnetization 

 Broyden mixing:
  rms(total) = 0.13054E-02    rms(broyden)= 0.13054E-02
  rms(prec ) = 0.16259E-02
  weight for this iteration     100.00

 eigenvalues of (default mixing * dielectric matrix)
  average eigenvalue GAMMA=   2.0418
  6.7682  3.3825  2.3527  2.3527  1.8916  1.2169  1.2169  1.0959  0.9100  0.9100
  0.3621

 Free energy of the ion-electron system (eV)
  ---------------------------------------------------
  alpha Z        PSCENC =        75.20389891
  Ewald energy   TEWEN  =    209383.82885611
  -Hartree energ DENC   =   -216893.84813769
  -exchange      EXHF   =         0.00000000
  -V(xc)+E(xc)   XCENC  =       850.88950904
  PAW double counting   =     25062.14605289   -25103.94880384
  entropy T*S    EENTRO =         0.00000000
  eigenvalues    EBANDS =     -3056.01589286
  atomic energy  EATOM  =      9123.59704331
  Solvation  Ediel_sol  =         0.00000000
  ---------------------------------------------------
  free energy    TOTEN  =      -558.14747412 eV

  energy without entropy =     -558.14747412  energy(sigma->0) =     -558.14747412


--------------------------------------------------------------------------------------------------------




--------------------------------------- Iteration      1(  17)  ---------------------------------------


    POTLOK:  cpu time    0.3388: real time    0.3454
    SETDIJ:  cpu time    0.0041: real time    0.0041
     EDDAV:  cpu time   76.0862: real time   76.2731
 BZINTS: Fermi energy: -3.270123;248.000000 electrons
         Band energy:***********;  BLOECHL correction:  0.000000
       DOS:  cpu time    0.0026: real time    0.0026
    CHARGE:  cpu time    3.7022: real time    3.7111
    MIXING:  cpu time    0.0152: real time    0.0152
    --------------------------------------------
      LOOP:  cpu time   80.1491: real time   80.3514

 eigenvalue-minimisations  :  4644
 total energy-change (2. order) :-0.2034336E-02  (-0.7140777E-05)
 number of electron     247.9999990 magnetization 
 augmentation part        5.8021169 magnetization 

 Broyden mixing:
  rms(total) = 0.77864E-03    rms(broyden)= 0.77864E-03
  rms(prec ) = 0.93738E-03
  weight for this iteration     100.00

 eigenvalues of (default mixing * dielectric matrix)
  average eigenvalue GAMMA=   2.1146
  7.3381  4.0706  2.5160  2.3857  1.8485  1.4210  1.4210  1.0315  1.0315  0.9968
  0.9529  0.3621

 Free energy of the ion-electron system (eV)
  ---------------------------------------------------
  alpha Z        PSCENC =        75.20389891
  Ewald energy   TEWEN  =    209383.82885611
  -Hartree energ DENC   =   -216897.02167154
  -exchange      EXHF   =         0.00000000
  -V(xc)+E(xc)   XCENC  =       850.88806746
  PAW double counting   =     25058.72928751   -25100.53204978
  entropy T*S    EENTRO =         0.00000000
  eigenvalues    EBANDS =     -3052.84294045
  atomic energy  EATOM  =      9123.59704331
  Solvation  Ediel_sol  =         0.00000000
  ---------------------------------------------------
  free energy    TOTEN  =      -558.14950846 eV

  energy without entropy =     -558.14950846  energy(sigma->0) =     -558.14950846


--------------------------------------------------------------------------------------------------------




--------------------------------------- Iteration      1(  18)  ---------------------------------------


    POTLOK:  cpu time    0.3552: real time    0.3940
    SETDIJ:  cpu time    0.0039: real time    0.0039
     EDDAV:  cpu time   72.9888: real time   73.1654
 BZINTS: Fermi energy: -3.264266;248.000000 electrons
         Band energy:***********;  BLOECHL correction:  0.000000
       DOS:  cpu time    0.0027: real time    0.0027
    CHARGE:  cpu time    3.6628: real time    3.6715
    MIXING:  cpu time    0.0155: real time    0.0155
    --------------------------------------------
      LOOP:  cpu time   77.0289: real time   77.2531

 eigenvalue-minimisations  :  4440
 total energy-change (2. order) :-0.1100162E-02  (-0.3899839E-05)
 number of electron     247.9999990 magnetization 
 augmentation part        5.8020811 magnetization 

 Broyden mixing:
  rms(total) = 0.46592E-03    rms(broyden)= 0.46591E-03
  rms(prec ) = 0.54695E-03
  weight for this iteration     100.00

 eigenvalues of (default mixing * dielectric matrix)
  average eigenvalue GAMMA=   2.1428
  7.6957  4.4652  2.5432  2.5432  1.9809  1.8614  0.3621  1.1963  1.1963  1.1887
  0.9343  0.9343  0.9542

 Free energy of the ion-electron system (eV)
  ---------------------------------------------------
  alpha Z        PSCENC =        75.20389891
  Ewald energy   TEWEN  =    209383.82885611
  -Hartree energ DENC   =   -216898.58620723
  -exchange      EXHF   =         0.00000000
  -V(xc)+E(xc)   XCENC  =       850.88953813
  PAW double counting   =     25061.55892744   -25103.36070322
  entropy T*S    EENTRO =         0.00000000
  eigenvalues    EBANDS =     -3051.28196209
  atomic energy  EATOM  =      9123.59704331
  Solvation  Ediel_sol  =         0.00000000
  ---------------------------------------------------
  free energy    TOTEN  =      -558.15060862 eV

  energy without entropy =     -558.15060862  energy(sigma->0) =     -558.15060862


--------------------------------------------------------------------------------------------------------




--------------------------------------- Iteration      1(  19)  ---------------------------------------


    POTLOK:  cpu time    0.3430: real time    0.3508
    SETDIJ:  cpu time    0.0045: real time    0.0045
     EDDAV:  cpu time   75.0615: real time   75.2428
 BZINTS: Fermi energy: -3.265318;248.000000 electrons
         Band energy:***********;  BLOECHL correction:  0.000000
       DOS:  cpu time    0.0026: real time    0.0026
    CHARGE:  cpu time    3.6917: real time    3.7005
    MIXING:  cpu time    0.0172: real time    0.0172
    --------------------------------------------
      LOOP:  cpu time   79.1205: real time   79.3184

 eigenvalue-minimisations  :  4596
 total energy-change (2. order) :-0.4757020E-03  (-0.1623372E-05)
 number of electron     247.9999990 magnetization 
 augmentation part        5.8020524 magnetization 

 Broyden mixing:
  rms(total) = 0.24793E-03    rms(broyden)= 0.24793E-03
  rms(prec ) = 0.30217E-03
  weight for this iteration     100.00

 eigenvalues of (default mixing * dielectric matrix)
  average eigenvalue GAMMA=   2.2063
  7.9612  5.1432  2.8905  2.5958  2.0454  1.9957  0.3621  1.3841  1.3841  1.1306
  1.1306  1.0185  0.9235  0.9235

 Free energy of the ion-electron system (eV)
  ---------------------------------------------------
  alpha Z        PSCENC =        75.20389891
  Ewald energy   TEWEN  =    209383.82885611
  -Hartree energ DENC   =   -216899.19477488
  -exchange      EXHF   =         0.00000000
  -V(xc)+E(xc)   XCENC  =       850.89070785
  PAW double counting   =     25060.08159874   -25101.88355616
  entropy T*S    EENTRO =         0.00000000
  eigenvalues    EBANDS =     -3050.67485822
  atomic energy  EATOM  =      9123.59704331
  Solvation  Ediel_sol  =         0.00000000
  ---------------------------------------------------
  free energy    TOTEN  =      -558.15108432 eV

  energy without entropy =     -558.15108432  energy(sigma->0) =     -558.15108432


--------------------------------------------------------------------------------------------------------




--------------------------------------- Iteration      1(  20)  ---------------------------------------


    POTLOK:  cpu time    0.3424: real time    0.3484
    SETDIJ:  cpu time    0.0044: real time    0.0045
     EDDAV:  cpu time   71.8219: real time   71.9969
 BZINTS: Fermi energy: -3.264267;248.000000 electrons
         Band energy:***********;  BLOECHL correction:  0.000000
       DOS:  cpu time    0.0026: real time    0.0026
    CHARGE:  cpu time    3.6894: real time    3.6983
    MIXING:  cpu time    0.0167: real time    0.0167
    --------------------------------------------
      LOOP:  cpu time   75.8774: real time   76.0673

 eigenvalue-minimisations  :  4308
 total energy-change (2. order) :-0.2773127E-03  (-0.9708632E-06)
 number of electron     247.9999990 magnetization 
 augmentation part        5.8020543 magnetization 

 Broyden mixing:
  rms(total) = 0.15517E-03    rms(broyden)= 0.15517E-03
  rms(prec ) = 0.18229E-03
  weight for this iteration     100.00

 eigenvalues of (default mixing * dielectric matrix)
  average eigenvalue GAMMA=   2.2525
  8.0352  5.8669  3.2709  2.5096  2.5096  1.9652  1.6443  0.3621  1.3950  1.1915
  1.1915  0.9598  0.9598  0.9999  0.9269

 Free energy of the ion-electron system (eV)
  ---------------------------------------------------
  alpha Z        PSCENC =        75.20389891
  Ewald energy   TEWEN  =    209383.82885611
  -Hartree energ DENC   =   -216899.54824084
  -exchange      EXHF   =         0.00000000
  -V(xc)+E(xc)   XCENC  =       850.89050004
  PAW double counting   =     25059.84906313   -25101.65072417
  entropy T*S    EENTRO =         0.00000000
  eigenvalues    EBANDS =     -3050.32175814
  atomic energy  EATOM  =      9123.59704331
  Solvation  Ediel_sol  =         0.00000000
  ---------------------------------------------------
  free energy    TOTEN  =      -558.15136163 eV

  energy without entropy =     -558.15136163  energy(sigma->0) =     -558.15136163


--------------------------------------------------------------------------------------------------------




--------------------------------------- Iteration      1(  21)  ---------------------------------------


    POTLOK:  cpu time    0.3432: real time    0.3509
    SETDIJ:  cpu time    0.0042: real time    0.0042
     EDDAV:  cpu time   66.0309: real time   66.1907
 BZINTS: Fermi energy: -3.263878;248.000000 electrons
         Band energy:***********;  BLOECHL correction:  0.000000
       DOS:  cpu time    0.0025: real time    0.0025
    CHARGE:  cpu time    3.7463: real time    3.7553
    MIXING:  cpu time    0.0165: real time    0.0165
    --------------------------------------------
      LOOP:  cpu time   70.1436: real time   70.3201

 eigenvalue-minimisations  :  3852
 total energy-change (2. order) :-0.1153239E-03  (-0.2619716E-06)
 number of electron     247.9999990 magnetization 
 augmentation part        5.8020541 magnetization 

 Broyden mixing:
  rms(total) = 0.84416E-04    rms(broyden)= 0.84415E-04
  rms(prec ) = 0.10082E-03
  weight for this iteration     100.00

 eigenvalues of (default mixing * dielectric matrix)
  average eigenvalue GAMMA=   2.2732
  8.1789  6.2073  3.6213  2.7141  2.4773  1.9160  1.9160  0.3621  1.4541  1.2282
  1.2282  1.1979  0.9457  0.9457  0.9479  1.0303

 Free energy of the ion-electron system (eV)
  ---------------------------------------------------
  alpha Z        PSCENC =        75.20389891
  Ewald energy   TEWEN  =    209383.82885611
  -Hartree energ DENC   =   -216899.71296310
  -exchange      EXHF   =         0.00000000
  -V(xc)+E(xc)   XCENC  =       850.89021714
  PAW double counting   =     25059.95628168   -25101.75792336
  entropy T*S    EENTRO =         0.00000000
  eigenvalues    EBANDS =     -3050.15688765
  atomic energy  EATOM  =      9123.59704331
  Solvation  Ediel_sol  =         0.00000000
  ---------------------------------------------------
  free energy    TOTEN  =      -558.15147696 eV

  energy without entropy =     -558.15147696  energy(sigma->0) =     -558.15147696


--------------------------------------------------------------------------------------------------------




--------------------------------------- Iteration      1(  22)  ---------------------------------------


    POTLOK:  cpu time    0.3399: real time    0.3484
    SETDIJ:  cpu time    0.0039: real time    0.0039
     EDDAV:  cpu time   63.2478: real time   63.4002
 BZINTS: Fermi energy: -3.263570;248.000000 electrons
         Band energy:***********;  BLOECHL correction:  0.000000
       DOS:  cpu time    0.0026: real time    0.0026
    CHARGE:  cpu time    3.6781: real time    3.6869
    MIXING:  cpu time    0.0182: real time    0.0182
    --------------------------------------------
      LOOP:  cpu time   67.2905: real time   67.4602

 eigenvalue-minimisations  :  3684
 total energy-change (2. order) :-0.5198450E-04  (-0.4844909E-07)
 number of electron     247.9999990 magnetization 
 augmentation part        5.8020496 magnetization 

 Broyden mixing:
  rms(total) = 0.48245E-04    rms(broyden)= 0.48245E-04
  rms(prec ) = 0.57732E-04
  weight for this iteration     100.00

 eigenvalues of (default mixing * dielectric matrix)
  average eigenvalue GAMMA=   2.2967
  8.2085  6.6687  4.0295  2.8644  2.4577  2.2425  1.8292  1.8292  0.3621  1.2822
  1.1978  1.1978  1.0791  0.9788  0.9788  0.9188  0.9188

 Free energy of the ion-electron system (eV)
  ---------------------------------------------------
  alpha Z        PSCENC =        75.20389891
  Ewald energy   TEWEN  =    209383.82885611
  -Hartree energ DENC   =   -216899.83109859
  -exchange      EXHF   =         0.00000000
  -V(xc)+E(xc)   XCENC  =       850.89022699
  PAW double counting   =     25059.84819666   -25101.64996005
  entropy T*S    EENTRO =         0.00000000
  eigenvalues    EBANDS =     -3050.03869229
  atomic energy  EATOM  =      9123.59704331
  Solvation  Ediel_sol  =         0.00000000
  ---------------------------------------------------
  free energy    TOTEN  =      -558.15152894 eV

  energy without entropy =     -558.15152894  energy(sigma->0) =     -558.15152894


--------------------------------------------------------------------------------------------------------




--------------------------------------- Iteration      1(  23)  ---------------------------------------


    POTLOK:  cpu time    0.3525: real time    0.3583
    SETDIJ:  cpu time    0.0040: real time    0.0040
     EDDAV:  cpu time   57.4782: real time   57.6190
 BZINTS: Fermi energy: -3.263406;248.000000 electrons
         Band energy:***********;  BLOECHL correction:  0.000000
       DOS:  cpu time    0.0026: real time    0.0026
    CHARGE:  cpu time    3.7323: real time    3.7412
    MIXING:  cpu time    0.0171: real time    0.0172
    --------------------------------------------
      LOOP:  cpu time   61.5867: real time   61.7422

 eigenvalue-minimisations  :  3216
 total energy-change (2. order) :-0.2467914E-04  (-0.1127537E-07)
 number of electron     247.9999990 magnetization 
 augmentation part        5.8020489 magnetization 

 Broyden mixing:
  rms(total) = 0.32897E-04    rms(broyden)= 0.32897E-04
  rms(prec ) = 0.37593E-04
  weight for this iteration     100.00

 eigenvalues of (default mixing * dielectric matrix)
  average eigenvalue GAMMA=   2.3315
  8.3596  7.0282  4.5709  3.0532  2.5407  2.2982  2.0049  0.3621  1.6765  1.6138
  1.2401  1.2401  1.1007  1.1007  0.9465  0.9465  0.9426  0.9426

 Free energy of the ion-electron system (eV)
  ---------------------------------------------------
  alpha Z        PSCENC =        75.20389891
  Ewald energy   TEWEN  =    209383.82885611
  -Hartree energ DENC   =   -216899.90206708
  -exchange      EXHF   =         0.00000000
  -V(xc)+E(xc)   XCENC  =       850.89019542
  PAW double counting   =     25059.92224586   -25101.72399263
  entropy T*S    EENTRO =         0.00000000
  eigenvalues    EBANDS =     -3049.96773353
  atomic energy  EATOM  =      9123.59704331
  Solvation  Ediel_sol  =         0.00000000
  ---------------------------------------------------
  free energy    TOTEN  =      -558.15155362 eV

  energy without entropy =     -558.15155362  energy(sigma->0) =     -558.15155362


--------------------------------------------------------------------------------------------------------




--------------------------------------- Iteration      1(  24)  ---------------------------------------


    POTLOK:  cpu time    0.3456: real time    0.3527
    SETDIJ:  cpu time    0.0039: real time    0.0040
     EDDAV:  cpu time   52.8180: real time   52.9451
 BZINTS: Fermi energy: -3.263294;248.000000 electrons
         Band energy:***********;  BLOECHL correction:  0.000000
       DOS:  cpu time    0.0026: real time    0.0026
    CHARGE:  cpu time    3.7136: real time    3.7224
    MIXING:  cpu time    0.0176: real time    0.0177
    --------------------------------------------
      LOOP:  cpu time   56.9013: real time   57.0445

 eigenvalue-minimisations  :  2832
 total energy-change (2. order) :-0.1173685E-04  (-0.3040269E-08)
 number of electron     247.9999990 magnetization 
 augmentation part        5.8020477 magnetization 

 Broyden mixing:
  rms(total) = 0.18343E-04    rms(broyden)= 0.18343E-04
  rms(prec ) = 0.20776E-04
  weight for this iteration     100.00

 eigenvalues of (default mixing * dielectric matrix)
  average eigenvalue GAMMA=   2.3866
  8.6505  7.2922  5.0975  3.2318  2.6286  2.6286  1.9704  1.9704  1.8076  0.3621
  1.2050  1.2050  1.2957  0.9526  0.9526  0.9596  0.9998  1.0683  1.0683

 Free energy of the ion-electron system (eV)
  ---------------------------------------------------
  alpha Z        PSCENC =        75.20389891
  Ewald energy   TEWEN  =    209383.82885611
  -Hartree energ DENC   =   -216899.95024889
  -exchange      EXHF   =         0.00000000
  -V(xc)+E(xc)   XCENC  =       850.89027672
  PAW double counting   =     25059.94443458   -25101.74618286
  entropy T*S    EENTRO =         0.00000000
  eigenvalues    EBANDS =     -3049.91964325
  atomic energy  EATOM  =      9123.59704331
  Solvation  Ediel_sol  =         0.00000000
  ---------------------------------------------------
  free energy    TOTEN  =      -558.15156536 eV

  energy without entropy =     -558.15156536  energy(sigma->0) =     -558.15156536


--------------------------------------------------------------------------------------------------------




--------------------------------------- Iteration      1(  25)  ---------------------------------------


    POTLOK:  cpu time    0.3455: real time    0.3472
    SETDIJ:  cpu time    0.0048: real time    0.0048
     EDDAV:  cpu time   51.7232: real time   51.8467
 BZINTS: Fermi energy: -3.263212;248.000000 electrons
         Band energy:***********;  BLOECHL correction:  0.000000
       DOS:  cpu time    0.0026: real time    0.0026
    CHARGE:  cpu time    3.7288: real time    3.7377
    MIXING:  cpu time    0.0193: real time    0.0193
    --------------------------------------------
      LOOP:  cpu time   55.8242: real time   55.9583

 eigenvalue-minimisations  :  2748
 total energy-change (2. order) :-0.6347222E-05  (-0.9492270E-09)
 number of electron     247.9999990 magnetization 
 augmentation part        5.8020473 magnetization 

 Broyden mixing:
  rms(total) = 0.10149E-04    rms(broyden)= 0.10149E-04
  rms(prec ) = 0.11168E-04
  weight for this iteration     100.00

 eigenvalues of (default mixing * dielectric matrix)
  average eigenvalue GAMMA=   2.3992
  8.8177  7.4239  5.3592  3.4400  2.6429  2.6429  2.1402  2.1402  1.7932  0.3621
  1.5979  1.2367  1.2367  1.1739  1.1739  0.9678  0.9678  0.9346  0.9346  0.9988

 Free energy of the ion-electron system (eV)
  ---------------------------------------------------
  alpha Z        PSCENC =        75.20389891
  Ewald energy   TEWEN  =    209383.82885611
  -Hartree energ DENC   =   -216899.97579226
  -exchange      EXHF   =         0.00000000
  -V(xc)+E(xc)   XCENC  =       850.89028692
  PAW double counting   =     25059.90924541   -25101.71096638
  entropy T*S    EENTRO =         0.00000000
  eigenvalues    EBANDS =     -3049.89414374
  atomic energy  EATOM  =      9123.59704331
  Solvation  Ediel_sol  =         0.00000000
  ---------------------------------------------------
  free energy    TOTEN  =      -558.15157171 eV

  energy without entropy =     -558.15157171  energy(sigma->0) =     -558.15157171


--------------------------------------------------------------------------------------------------------




--------------------------------------- Iteration      1(  26)  ---------------------------------------


    POTLOK:  cpu time    0.3434: real time    0.3488
    SETDIJ:  cpu time    0.0040: real time    0.0040
     EDDAV:  cpu time   50.3974: real time   50.5174
 BZINTS: Fermi energy: -3.263193;248.000000 electrons
         Band energy:***********;  BLOECHL correction:  0.000000
       DOS:  cpu time    0.0026: real time    0.0026
    CHARGE:  cpu time    3.7161: real time    3.7249
    MIXING:  cpu time    0.0188: real time    0.0189
    --------------------------------------------
      LOOP:  cpu time   54.4823: real time   54.6166

 eigenvalue-minimisations  :  2616
 total energy-change (2. order) :-0.2157063E-05  (-0.5270490E-10)
 number of electron     247.9999990 magnetization 
 augmentation part        5.8020472 magnetization 

 Broyden mixing:
  rms(total) = 0.54671E-05    rms(broyden)= 0.54671E-05
  rms(prec ) = 0.60357E-05
  weight for this iteration     100.00

 eigenvalues of (default mixing * dielectric matrix)
  average eigenvalue GAMMA=   2.4226
  9.0415  7.5945  5.6905  3.9100  2.8489  2.5075  2.4218  1.9471  1.8674  1.8674
  0.3621  1.2079  1.2079  1.2860  1.2860  0.9971  0.9971  1.0121  0.9428  0.9428
  0.9360

 Free energy of the ion-electron system (eV)
  ---------------------------------------------------
  alpha Z        PSCENC =        75.20389891
  Ewald energy   TEWEN  =    209383.82885611
  -Hartree energ DENC   =   -216899.98229334
  -exchange      EXHF   =         0.00000000
  -V(xc)+E(xc)   XCENC  =       850.89027862
  PAW double counting   =     25059.90603432   -25101.70775163
  entropy T*S    EENTRO =         0.00000000
  eigenvalues    EBANDS =     -3049.88764017
  atomic energy  EATOM  =      9123.59704331
[...]
   C          35.630          3.433         10.493          0.874
   C          35.630          3.433         10.493          0.874
   C          35.630          3.433         10.493          0.874
   C          34.828          3.420         10.374          0.865
   C          34.203          3.410         10.281          0.857
   C          34.828          3.420         10.374          0.865
   C          34.203          3.410         10.281          0.857
   C          34.060          3.408         10.259          0.855
   C          34.203          3.410         10.281          0.857
   C          34.060          3.408         10.259          0.855
   C          34.203          3.410         10.281          0.857
   C          34.826          3.420         10.374          0.864
   C          34.731          3.419         10.360          0.863
   C          34.826          3.420         10.374          0.864
   C          34.731          3.419         10.360          0.863
   C          34.826          3.420         10.374          0.864
   C          34.203          3.410         10.281          0.857
   C          34.826          3.420         10.374          0.864
   C          34.203          3.410         10.281          0.857
   C          34.060          3.408         10.259          0.855
   C          33.823          3.404         10.223          0.852
   C          34.060          3.408         10.259          0.855
   C          33.823          3.404         10.223          0.852
  Edisp (eV):   -7.02828
    FORVDW:  cpu time  103.7560: real time  104.0024

  FORCE on cell =-STRESS in cart. coord.  units (eV):
  Direction    XX          YY          ZZ          XY          YZ          ZX
  --------------------------------------------------------------------------------------
  Alpha Z    76.07399    76.07399    76.07399
  Ewald  218764.89797218765.43136************     0.55645     0.45230    -0.03531
  Hartree218076.66200218076.82579************     0.34363     0.44379    -0.02754
  E(xc)    -922.77527  -922.77387  -948.58182     0.00141     0.00001    -0.00005
  Local  ************************440159.81461    -0.90057    -0.89566     0.06235
  n-local  -212.66743  -212.66726  -203.77932     0.00481    -0.00004     0.00004
  augment   -23.69408   -23.69461   -22.05577     0.00018    -0.00000    -0.00000
  Kinetic  3756.83368  3756.78882  4195.90710    -0.06024     0.00012     0.00095
  Fock        0.00000     0.00000     0.00000     0.00000     0.00000     0.00000
  vdW        -7.50876    -7.50867    -4.12487    -0.00011    -0.00000    -0.00000
  -------------------------------------------------------------------------------------
  Total      -0.10488    -0.08398    -0.35784    -0.05443     0.00052     0.00044
  in kB      -0.04048    -0.03241    -0.13812    -0.02101     0.00020     0.00017
  external pressure =       -0.07 kB  Pullay stress =        0.00 kB


 VOLUME and BASIS-vectors are now :
 -----------------------------------------------------------------------------
  energy-cutoff  :      850.00
  volume of cell :     4150.85
      direct lattice vectors                 reciprocal lattice vectors
     9.795472477 -0.003335275 -0.000000532     0.102067896 -0.058984534  0.000000066
     4.901452904  8.481562067  0.000008392     0.000040137  0.117879615 -0.000000121
    -0.000002667  0.000051244 49.951752334     0.000000001 -0.000000020  0.020019318

  length of vectors
     9.795473045  9.795975483 49.951752334     0.117885668  0.117879622  0.020019318


 FORCES acting on ions
    electron-ion (+dipol)            ewald-force                    non-local-force                 convergence-correction
 -----------------------------------------------------------------------------------------------
   0.238E+00 0.159E+00 -.547E+03   -.142E+00 -.106E+00 0.547E+03   -.921E-01 -.536E-01 -.379E+00   0.879E-06 0.484E-06 0.494E-05
   -.193E+01 -.115E+01 -.515E+03   0.201E+01 0.119E+01 0.514E+03   -.721E-01 -.420E-01 0.574E+00   0.924E-07 -.172E-06 0.448E-05
   0.223E+00 0.149E+00 0.547E+03   -.127E+00 -.949E-01 -.547E+03   -.919E-01 -.537E-01 0.378E+00   0.958E-06 0.506E-06 -.343E-05
   -.193E+01 -.115E+01 0.515E+03   0.200E+01 0.119E+01 -.514E+03   -.728E-01 -.422E-01 -.575E+00   -.784E-07 -.208E-06 -.311E-05
   0.112E+02 -.646E+01 -.513E+03   -.113E+02 0.650E+01 0.514E+03   0.579E-01 -.317E-01 -.478E+00   0.691E-06 -.277E-06 0.416E-05
   0.464E-01 0.231E+01 -.515E+03   -.493E-01 -.240E+01 0.514E+03   0.867E-03 0.802E-01 0.575E+00   0.174E-06 -.171E-06 0.463E-05
   0.112E+02 -.645E+01 0.513E+03   -.112E+02 0.649E+01 -.514E+03   0.587E-01 -.326E-01 0.478E+00   -.243E-06 0.230E-06 -.266E-05
   0.464E-01 0.230E+01 0.515E+03   -.491E-01 -.239E+01 -.514E+03   0.786E-03 0.815E-01 -.576E+00   0.658E-07 -.409E-07 -.324E-05
   -.270E-01 -.328E+00 -.546E+03   0.277E-01 0.228E+00 0.547E+03   -.750E-04 0.112E+00 -.378E+00   -.883E-07 -.128E-05 0.519E-05
   -.141E+02 0.791E+01 -.536E+03   0.141E+02 -.765E+01 0.537E+03   0.177E-02 -.266E+00 -.519E+00   0.136E-05 0.361E-06 0.485E-05
   -.272E-01 -.305E+00 0.546E+03   0.282E-01 0.203E+00 -.547E+03   0.124E-03 0.111E+00 0.377E+00   -.127E-06 -.134E-05 -.365E-05
   -.141E+02 0.791E+01 0.536E+03   0.141E+02 -.765E+01 -.537E+03   0.281E-02 -.266E+00 0.519E+00   0.115E-05 -.549E-06 -.342E-05
   -.517E+01 0.295E+01 -.532E+03   0.500E+01 -.285E+01 0.532E+03   0.161E+00 -.919E-01 0.537E+00   0.112E-05 -.650E-06 0.549E-05
   -.139E+02 0.832E+01 -.536E+03   0.137E+02 -.844E+01 0.537E+03   0.228E+00 0.128E+00 -.519E+00   0.432E-06 -.102E-05 0.468E-05
   -.517E+01 0.295E+01 0.532E+03   0.500E+01 -.285E+01 -.532E+03   0.160E+00 -.919E-01 -.537E+00   0.129E-05 -.662E-06 -.388E-05
   -.139E+02 0.832E+01 0.536E+03   0.137E+02 -.844E+01 -.537E+03   0.229E+00 0.127E+00 0.519E+00   0.113E-05 -.369E-06 -.328E-05
   0.210E-01 0.129E+02 -.513E+03   -.185E-01 -.130E+02 0.513E+03   0.270E-02 0.638E-01 -.477E+00   -.147E-06 0.709E-06 0.424E-05
   0.203E+01 -.115E+01 -.515E+03   -.211E+01 0.119E+01 0.514E+03   0.706E-01 -.406E-01 0.576E+00   -.439E-06 0.252E-06 0.472E-05
   0.252E-01 0.129E+02 0.513E+03   -.233E-01 -.130E+02 -.513E+03   0.223E-02 0.648E-01 0.477E+00   -.189E-06 -.324E-06 -.273E-05
   0.202E+01 -.114E+01 0.515E+03   -.210E+01 0.119E+01 -.514E+03   0.723E-01 -.414E-01 -.577E+00   -.370E-06 0.161E-06 -.332E-05
   -.112E+02 -.646E+01 -.513E+03   0.112E+02 0.650E+01 0.513E+03   -.531E-01 -.315E-01 -.477E+00   -.851E-06 -.221E-06 0.438E-05
   -.266E+02 -.154E+02 -.440E+03   0.265E+02 0.153E+02 0.440E+03   0.112E+00 0.638E-01 0.833E+00   -.103E-06 0.105E-06 0.397E-05
   -.111E+02 -.645E+01 0.513E+03   0.112E+02 0.649E+01 -.513E+03   -.541E-01 -.317E-01 0.477E+00   0.240E-09 0.277E-06 -.285E-05
   -.266E+02 -.154E+02 0.440E+03   0.265E+02 0.153E+02 -.440E+03   0.113E+00 0.641E-01 -.832E+00   -.466E-06 -.969E-07 -.256E-05
   -.531E+02 0.110E+02 -.441E+03   0.533E+02 -.115E+02 0.441E+03   -.233E+00 0.529E+00 -.311E+00   -.445E-06 0.477E-06 0.407E-05
   -.794E+02 0.459E+02 -.240E+03   0.805E+02 -.465E+02 0.240E+03   -.103E+01 0.597E+00 -.202E+00   -.534E-06 0.293E-06 0.405E-05
   -.531E+02 0.110E+02 0.441E+03   0.533E+02 -.115E+02 -.441E+03   -.234E+00 0.528E+00 0.311E+00   -.109E-05 -.655E-06 -.246E-05
   -.794E+02 0.459E+02 0.240E+03   0.805E+02 -.465E+02 -.240E+03   -.103E+01 0.597E+00 0.202E+00   -.525E-06 0.305E-06 -.613E-06
   -.360E+02 0.405E+02 -.441E+03   0.366E+02 -.404E+02 0.441E+03   -.573E+00 -.600E-01 -.310E+00   -.625E-06 0.442E-06 0.394E-05
   0.754E-01 0.308E+02 -.440E+03   -.762E-01 -.306E+02 0.440E+03   0.502E-03 -.129E+00 0.832E+00   -.214E-06 0.122E-06 0.385E-05
   -.360E+02 0.405E+02 0.441E+03   0.366E+02 -.404E+02 -.441E+03   -.574E+00 -.592E-01 0.310E+00   0.222E-07 0.163E-05 -.237E-05
   0.735E-01 0.308E+02 0.440E+03   -.739E-01 -.306E+02 -.440E+03   0.711E-03 -.130E+00 -.831E+00   -.241E-06 0.574E-06 -.246E-05
   -.271E+00 0.146E+00 -.546E+03   0.182E+00 -.950E-01 0.547E+03   0.956E-01 -.556E-01 -.377E+00   -.122E-05 0.615E-06 0.536E-05
   -.267E+00 -.162E+02 -.536E+03   0.486E+00 0.160E+02 0.536E+03   -.228E+00 0.136E+00 -.518E+00   0.934E-06 0.123E-05 0.499E-05
   -.246E+00 0.132E+00 0.546E+03   0.154E+00 -.796E-01 -.547E+03   0.945E-01 -.550E-01 0.377E+00   -.124E-05 0.583E-06 -.380E-05
   -.267E+00 -.162E+02 0.536E+03   0.486E+00 0.160E+02 -.537E+03   -.227E+00 0.136E+00 0.518E+00   0.484E-07 0.149E-05 -.355E-05
   -.170E+02 -.515E+02 -.441E+03   0.167E+02 0.519E+02 0.441E+03   0.341E+00 -.465E+00 -.312E+00   0.199E-06 -.374E-06 0.415E-05
   -.121E+00 -.917E+02 -.240E+03   0.122E+00 0.930E+02 0.240E+03   -.138E-02 -.119E+01 -.201E+00   -.307E-07 -.358E-06 0.412E-05
   -.170E+02 -.515E+02 0.441E+03   0.167E+02 0.519E+02 -.441E+03   0.341E+00 -.465E+00 0.312E+00   -.113E-05 -.360E-06 -.254E-05
   -.124E+00 -.917E+02 0.240E+03   0.125E+00 0.930E+02 -.240E+03   -.113E-02 -.119E+01 0.201E+00   -.154E-07 -.340E-06 -.649E-06
   0.795E+02 0.459E+02 -.240E+03   -.805E+02 -.465E+02 0.240E+03   0.103E+01 0.597E+00 -.202E+00   0.141E-06 0.776E-07 0.428E-05
   0.795E+02 0.459E+02 0.240E+03   -.805E+02 -.465E+02 -.240E+03   0.103E+01 0.597E+00 0.202E+00   0.141E-06 0.776E-07 -.810E-06
   0.361E+02 0.405E+02 -.441E+03   -.367E+02 -.404E+02 0.441E+03   0.573E+00 -.630E-01 -.313E+00   0.301E-06 0.213E-06 0.420E-05
   0.138E+02 0.831E+01 -.536E+03   -.136E+02 -.843E+01 0.536E+03   -.230E+00 0.130E+00 -.518E+00   -.894E-06 -.113E-05 0.501E-05
   0.361E+02 0.404E+02 0.441E+03   -.367E+02 -.404E+02 -.441E+03   0.573E+00 -.622E-01 0.313E+00   -.379E-06 0.140E-05 -.261E-05
   0.139E+02 0.831E+01 0.536E+03   -.136E+02 -.844E+01 -.536E+03   -.230E+00 0.129E+00 0.518E+00   -.156E-05 -.492E-06 -.358E-05
   -.449E-01 -.592E+01 -.532E+03   0.483E-01 0.572E+01 0.532E+03   0.196E-03 0.187E+00 0.539E+00   0.258E-06 0.121E-05 0.561E-05
   0.238E+00 -.162E+02 -.536E+03   -.461E+00 0.161E+02 0.537E+03   0.225E+00 0.135E+00 -.520E+00   -.385E-06 0.889E-06 0.477E-05
   -.406E-01 -.591E+01 0.532E+03   0.431E-01 0.572E+01 -.532E+03   -.233E-03 0.185E+00 -.539E+00   0.312E-06 0.134E-05 -.399E-05
   0.228E+00 -.162E+02 0.536E+03   -.450E+00 0.161E+02 -.537E+03   0.225E+00 0.136E+00 0.520E+00   0.534E-06 0.117E-05 -.336E-05
   0.170E+02 -.515E+02 -.441E+03   -.166E+02 0.519E+02 0.441E+03   -.340E+00 -.465E+00 -.313E+00   0.210E-06 -.681E-06 0.401E-05
   0.267E+02 -.154E+02 -.441E+03   -.266E+02 0.153E+02 0.440E+03   -.109E+00 0.629E-01 0.830E+00   -.211E-07 -.588E-07 0.378E-05
   0.170E+02 -.515E+02 0.441E+03   -.166E+02 0.519E+02 -.441E+03   -.340E+00 -.466E+00 0.312E+00   0.160E-05 -.693E-06 -.244E-05
   0.267E+02 -.154E+02 0.441E+03   -.266E+02 0.153E+02 -.440E+03   -.110E+00 0.636E-01 -.830E+00   0.424E-06 -.336E-06 -.241E-05
   0.531E+02 0.110E+02 -.441E+03   -.533E+02 -.115E+02 0.441E+03   0.232E+00 0.529E+00 -.314E+00   0.569E-06 0.129E-06 0.418E-05
   0.141E+02 0.789E+01 -.536E+03   -.141E+02 -.763E+01 0.537E+03   -.296E-02 -.265E+00 -.519E+00   -.111E-05 -.280E-06 0.495E-05
   0.531E+02 0.110E+02 0.441E+03   -.533E+02 -.115E+02 -.441E+03   0.233E+00 0.528E+00 0.314E+00   0.127E-05 -.106E-05 -.259E-05
   0.142E+02 0.789E+01 0.536E+03   -.141E+02 -.763E+01 -.537E+03   -.411E-02 -.265E+00 0.519E+00   -.908E-06 -.121E-05 -.352E-05
   0.513E+01 0.297E+01 -.532E+03   -.497E+01 -.287E+01 0.531E+03   -.167E+00 -.950E-01 0.540E+00   -.711E-06 -.746E-06 0.572E-05
   -.406E-01 -.119E-01 -.542E+03   0.437E-01 0.143E-01 0.542E+03   -.597E-03 0.670E-03 -.209E+00   0.402E-06 -.165E-06 0.540E-05
   0.513E+01 0.297E+01 0.532E+03   -.497E+01 -.287E+01 -.531E+03   -.166E+00 -.949E-01 -.540E+00   -.838E-06 -.798E-06 -.411E-05
   -.424E-01 -.170E-01 0.542E+03   0.458E-01 0.202E-01 -.542E+03   -.264E-03 0.122E-02 0.209E+00   0.413E-06 -.146E-06 -.385E-05
 -----------------------------------------------------------------------------------------------
   -.340E-02 -.274E-03 0.926E-03   0.385E-12 0.956E-13 -.341E-12   0.311E-02 0.392E-04 -.127E-02   -.111E-06 0.921E-07 0.523E-04
 
 
 POSITION                                       TOTAL-FORCE (eV/Angst)
 -----------------------------------------------------------------------------------
      0.00523      0.00278     22.85369         0.000881     -0.001421      0.000303
      1.22600      0.70713     22.79211         0.001444      0.002635      0.002639
      0.00526      0.00281     19.10590         0.002160     -0.000901     -0.000603
      1.22605      0.70716     19.16768         0.000181      0.002369     -0.003117
     11.00944      2.12209     22.74680        -0.002735      0.005507     -0.001667
      2.44888      2.82334     22.79175        -0.002086     -0.013696      0.002788
     11.00947      2.12213     19.21296        -0.000599      0.003227      0.000884
      2.44891      2.82333     19.16801        -0.001953     -0.010737     -0.003310
      2.44967      4.23248     22.85314         0.000630      0.013954      0.001232
      3.68181      4.94205     22.77443        -0.013939     -0.002799      0.006264
      2.44970      4.23253     19.10641         0.001078      0.010552     -0.001491
      3.68183      4.94206     19.18496        -0.011559     -0.002144     -0.005866
     13.47153      6.35631     22.83902        -0.001514      0.007079      0.006059
      4.90735      7.06263     22.77481        -0.011474      0.004595      0.005497
     13.47160      6.35634     19.12033        -0.003832      0.006623     -0.006195
      4.90737      7.06267     19.18462        -0.009274      0.003686     -0.005110
      7.34908      8.46828     22.74615         0.005283     -0.007837     -0.000544
      3.67002      0.70624     22.79106        -0.011254      0.004811      0.003813
      7.34913      8.46830     19.21361         0.004136     -0.005658     -0.000127
      3.67001      0.70628     19.16868        -0.007099      0.002784     -0.004366
      3.68302      2.12449     22.74588         0.010061      0.004785     -0.000680
      4.90537      2.82953     22.46052        -0.009816     -0.007657     -0.006048
      3.68306      2.12451     19.21386         0.007645      0.004105     -0.000083
      4.90538      2.82955     19.49895        -0.007049     -0.006535      0.006979
      4.86486      4.25203     22.37855         0.008484     -0.002596     -0.001472
      5.82859      5.11590     21.69604         0.015512     -0.010870     -0.051604
      4.86493      4.25206     19.58081         0.006399     -0.003370      0.000834
      5.82864      5.11590     20.26331         0.015911     -0.010596      0.052555
      6.09584      6.38200     22.37881         0.009233     -0.000926     -0.000502
      7.34863      7.05724     22.46084        -0.000323      0.009876     -0.007518
      6.09590      6.38199     19.58060         0.008165      0.000596      0.000004
      7.34867      7.05728     19.49866         0.000300      0.007321      0.008364
      4.89016      0.00125     22.85224         0.008941     -0.005779      0.002502
      6.12120      0.71240     22.77368        -0.005798     -0.010844      0.007736
      4.89023      0.00126     19.10727         0.004968     -0.003662     -0.002642
      6.12121      0.71241     19.18568        -0.003852     -0.008952     -0.007270
      6.11624      2.08198     22.37829        -0.000128      0.012358     -0.001147
      7.34660      2.48376     21.69593        -0.000087      0.019933     -0.049786
      6.11630      2.08203     19.58108        -0.002173      0.011291      0.000493
      7.34661      2.48379     20.26343         0.000601      0.020152      0.050631
      8.86726      5.11507     21.69589        -0.017462     -0.011826     -0.051583
      8.86729      5.11508     20.26347        -0.017628     -0.011792      0.052436
      8.60100      6.38153     22.37839        -0.011682     -0.003804     -0.000483
      9.79013      7.06119     22.77357         0.011133      0.008770      0.008354
      8.60104      6.38152     19.58101        -0.011535     -0.001953     -0.000068
      9.79017      7.06123     19.18582         0.010211      0.006747     -0.007928
     12.24693      8.47922     22.83851         0.003628     -0.004180      0.007113
      8.57039      0.71166     22.77472        -0.002363     -0.009775      0.005380
     12.24698      8.47929     19.12083         0.002199     -0.007163     -0.007261
      8.57042      0.71167     19.18470        -0.001900     -0.006912     -0.004873
      8.57625      2.08141     22.37911         0.002897      0.009445     -0.002059
      9.78771      2.82814     22.46159         0.011021     -0.008096     -0.008769
      8.57628      2.08148     19.58030         0.003400      0.007431      0.001461
      9.78776      2.82816     19.49793         0.008890     -0.005863      0.009666
      9.82993      4.25052     22.37896        -0.008505     -0.004661     -0.002334
     11.01374      4.93968     22.77422         0.013007      0.000555      0.006851
      9.82994      4.25056     19.58046        -0.006513     -0.005656      0.001617
     11.01381      4.93970     19.18518         0.010144      0.001108     -0.006405
     11.02092      6.35740     22.83816        -0.005541     -0.000491      0.006953
     12.24643      7.06428     22.90020         0.002502      0.003001      0.010896
     11.02095      6.35743     19.12116        -0.004536     -0.000515     -0.006889
     12.24647      7.06429     19.05912         0.003162      0.004374     -0.010505
 -----------------------------------------------------------------------------------
    total drift:                               -0.000288     -0.000234     -0.000295


--------------------------------------------------------------------------------------------------------



  FREE ENERGIE OF THE ION-ELECTRON SYSTEM (eV)
  ---------------------------------------------------
  free  energy   TOTEN  =      -565.20134895 eV

  energy  without entropy=     -565.20134895  energy(sigma->0) =     -565.20134895
 
 d Force = 0.2277328E-03[-0.222E-03, 0.677E-03]  d Energy = 0.2894880E-02-0.267E-02
 d Force = 0.2090972E+01[ 0.209E+01, 0.209E+01]  d Ewald  = 0.2504070E+03-0.248E+03


--------------------------------------------------------------------------------------------------------


    POTLOK:  cpu time    0.4476: real time    0.4487


--------------------------------------------------------------------------------------------------------


 Quasi-Newton relaxation of ions (Broydens 2nd method)
  g(Force)  = 0.121E-02   g(Stress)= 0.118E-03

 retain information from N=  3 steps
 eigenvalues of (default step * inverse Hessian matrix)
  average eigenvalue of G=   2.0042
 eigenvalue spectrum of G is  5.0157  0.4493  0.5474


--------------------------------------------------------------------------------------------------------


  
 reached required accuracy - stopping structural energy minimisation
     LOOP+:  cpu time 1290.4029: real time 1293.8641
    4ORBIT:  cpu time    0.0000: real time    0.0000

 total amount of memory used by VASP MPI-rank0   343151. kBytes
=======================================================================

   base      :      30000. kBytes
   nonl-proj :      53997. kBytes
   fftplans  :      41100. kBytes
   grid      :      57575. kBytes
   one-center:         24. kBytes
   wavefun   :     160455. kBytes
 
  
  
 General timing and accounting informations for this job:
 ========================================================
  
                  Total CPU time used (sec):    11346.037
                            User time (sec):    10981.917
                          System time (sec):      364.120
                         Elapsed time (sec):    11375.995
  
                   Maximum memory used (kb):      449788.
                   Average memory used (kb):           0.
  
                          Minor page faults:      8854684
                          Major page faults:            1
                 Voluntary context switches:         6083
