<?xml version="1.0" encoding="ISO-8859-1"?>
<modeling>
 <generator>
  <i name="program" type="string">vasp </i>
  <i name="version" type="string">5.4.4.18Apr17-6-g9f103f2a35  </i>
  <i name="subversion" type="string">(build Jan 12 2023 11:40:15) complex            parallel </i>
  <i name="platform" type="string">LinuxIFC </i>
  <i name="date" type="string">2023 12 04 </i>
  <i name="time" type="string">09:10:42 </i>
 </generator>
 <incar>
  <i type="int" name="ISTART">     0</i>
  <i type="string" name="PREC">accurate   (precision level)</i>
  <i type="string" name="ALGO"> Normal</i>
  <i type="int" name="ISPIN">     1</i>
  <i type="int" name="ICHARG">     2</i>
  <i type="int" name="NELM">   150</i>
  <i type="int" name="IBRION">     1</i>
  <i name="EDIFF">      0.00000010</i>
  <i name="EDIFFG">      0.01000000</i>
  <i type="int" name="NSW">  1000</i>
  <i type="int" name="ISIF">     3</i>
  <i name="ENCUT">    850.00000000</i>
  <i type="logical" name="LREAL"> F  </i>
  <i type="int" name="ISMEAR">    -5</i>
  <i name="KSPACING">      0.15000000</i>
  <i type="logical" name="KGAMMA"> T  </i>
  <i type="logical" name="LWAVE"> F  </i>
  <i type="logical" name="LCHARG"> F  </i>
  <v type="int" name="KPOINT_BSE">    -1     0     0     0</v>
  <i type="int" name="NELM">   150</i>
 </incar>
 <structure name="primitive_cell" >
  <crystal>
   <varray name="basis" >
    <v>       9.84672000       0.00000000       0.00000000 </v>
    <v>       4.93000000       8.52848000       0.00000000 </v>
    <v>       0.00000000       0.00000000      50.00000000 </v>
   </varray>
   <i name="volume">   4198.87772928 </i>
   <varray name="rec_basis" >
    <v>       0.10155666      -0.05870616       0.00000000 </v>
    <v>       0.00000000       0.11725419       0.00000000 </v>
    <v>       0.00000000       0.00000000       0.02000000 </v>
   </varray>
  </crystal>
  <varray name="positions" >
   <v>       0.00042034       0.00035945       0.45749584 </v>
   <v>       0.08339851       0.08340258       0.45627531 </v>
   <v>      -0.16712607       0.08402251       0.45592277 </v>
   <v>       0.08409652      -0.16717067       0.45592510 </v>
   <v>       0.25056023      -0.00132452       0.45534460 </v>
   <v>      -0.00133126       0.25054577       0.45536203 </v>
   <v>      -0.25003426      -0.00012301       0.45719809 </v>
   <v>      -0.00002033      -0.25011089       0.45721279 </v>
   <v>      -0.24705353       0.24546385       0.44806549 </v>
   <v>       0.24553331      -0.24708774       0.44805518 </v>
   <v>      -0.16669577      -0.16676187       0.45840992 </v>
   <v>       0.33380659      -0.16783091       0.44971044 </v>
   <v>      -0.16787410       0.33379958       0.44973034 </v>
   <v>      -0.39623456       0.29216693       0.43431521 </v>
   <v>       0.29230634      -0.39630041       0.43431926 </v>
   <v>       0.00042555       0.00036596       0.38250926 </v>
   <v>       0.33291295       0.08340865       0.45624794 </v>
   <v>       0.08341520       0.33289959       0.45626585 </v>
   <v>      -0.41715791       0.08397902       0.45589509 </v>
   <v>       0.08408213      -0.41720881       0.45591511 </v>
   <v>      -0.16712922       0.08403181       0.38407676 </v>
   <v>       0.08410234      -0.16717115       0.38407455 </v>
   <v>       0.08339673       0.08340309       0.38373320 </v>
   <v>       0.24553990      -0.24708682       0.39194129 </v>
   <v>      -0.24705376       0.24547019       0.39193168 </v>
   <v>       0.25053795       0.25050355       0.45533856 </v>
   <v>      -0.25004773      -0.25009836       0.45718765 </v>
   <v>      -0.49865538       0.24536135       0.44804095 </v>
   <v>       0.24550476      -0.49871551       0.44804756 </v>
   <v>      -0.49863393      -0.24698113       0.44804382 </v>
   <v>      -0.24702955      -0.49865943       0.44806064 </v>
   <v>      -0.39623821       0.29217887       0.40568208 </v>
   <v>       0.29231887      -0.39630494       0.40567723 </v>
   <v>       0.25055780      -0.00131743       0.38466141 </v>
   <v>      -0.00132440       0.25054485       0.38464434 </v>
   <v>       0.33381591      -0.16783745       0.39028865 </v>
   <v>      -0.16788329       0.33381094       0.39026985 </v>
   <v>      -0.25003523      -0.00011829       0.38279816 </v>
   <v>      -0.00001532      -0.25011202       0.38278437 </v>
   <v>      -0.16669293      -0.16675305       0.38158422 </v>
   <v>       0.49900761       0.00036102       0.45745949 </v>
   <v>       0.00041292       0.49896431       0.45748135 </v>
   <v>      -0.41715305      -0.16708359       0.45589166 </v>
   <v>      -0.16708990      -0.41717608       0.45590900 </v>
   <v>      -0.41715367       0.08398523       0.38410272 </v>
   <v>       0.33292248       0.08340772       0.38375965 </v>
   <v>       0.08341295       0.33290881       0.38374214 </v>
   <v>       0.08408595      -0.41720205       0.38408358 </v>
   <v>      -0.39619622      -0.39619027       0.43431627 </v>
   <v>      -0.49865624       0.24536648       0.39195539 </v>
   <v>       0.24550899      -0.49871492       0.39194839 </v>
   <v>      -0.49863071      -0.24697710       0.39195309 </v>
   <v>      -0.24702484      -0.49865566       0.39193675 </v>
   <v>       0.25053352       0.25050362       0.38466742 </v>
   <v>      -0.25004576      -0.25009613       0.38280836 </v>
   <v>       0.33378329       0.33372390       0.44970508 </v>
   <v>      -0.39619727      -0.39618863       0.40568099 </v>
   <v>       0.49899748       0.00036983       0.38254350 </v>
   <v>       0.00041990       0.49895819       0.38252243 </v>
   <v>      -0.41714793      -0.16708100       0.38410637 </v>
   <v>      -0.16709083      -0.41716826       0.38408983 </v>
   <v>       0.33378959       0.33373049       0.39029393 </v>
  </varray>
 </structure>
 <varray name="primitive_index" >
  <v type="int" >        1 </v>
  <v type="int" >        2 </v>
  <v type="int" >       48 </v>
  <v type="int" >       14 </v>
  <v type="int" >       17 </v>
  <v type="int" >        5 </v>
  <v type="int" >       47 </v>
  <v type="int" >       13 </v>
  <v type="int" >       51 </v>
  <v type="int" >       29 </v>
  <v type="int" >       60 </v>
  <v type="int" >       30 </v>
  <v type="int" >       52 </v>
  <v type="int" >       38 </v>
  <v type="int" >       26 </v>
  <v type="int" >        3 </v>
  <v type="int" >       18 </v>
  <v type="int" >        6 </v>
  <v type="int" >       34 </v>
  <v type="int" >       10 </v>
  <v type="int" >       50 </v>
  <v type="int" >       16 </v>
  <v type="int" >        4 </v>
  <v type="int" >       31 </v>
  <v type="int" >       53 </v>
  <v type="int" >       21 </v>
  <v type="int" >       59 </v>
  <v type="int" >       37 </v>
  <v type="int" >       25 </v>
  <v type="int" >       43 </v>
  <v type="int" >       55 </v>
  <v type="int" >       40 </v>
  <v type="int" >       28 </v>
  <v type="int" >       19 </v>
  <v type="int" >        7 </v>
  <v type="int" >       32 </v>
  <v type="int" >       54 </v>
  <v type="int" >       49 </v>
  <v type="int" >       15 </v>
  <v type="int" >       62 </v>
  <v type="int" >       33 </v>
  <v type="int" >        9 </v>
  <v type="int" >       44 </v>
  <v type="int" >       56 </v>
  <v type="int" >       36 </v>
  <v type="int" >       20 </v>
  <v type="int" >        8 </v>
  <v type="int" >       12 </v>
  <v type="int" >       41 </v>
  <v type="int" >       39 </v>
  <v type="int" >       27 </v>
  <v type="int" >       45 </v>
  <v type="int" >       57 </v>
  <v type="int" >       23 </v>
  <v type="int" >       61 </v>
  <v type="int" >       22 </v>
  <v type="int" >       42 </v>
  <v type="int" >       35 </v>
  <v type="int" >       11 </v>
  <v type="int" >       46 </v>
  <v type="int" >       58 </v>
  <v type="int" >       24 </v>
 </varray>
 <kpoints>
  <generation param="Gamma">
   <v type="int" name="divisions">       5        5        1 </v>
   <v name="usershift">      0.00000000       0.00000000       0.00000000 </v>
   <v name="genvec1">      0.20000000      -0.00000000       0.00000000 </v>
   <v name="genvec2">      0.00000000       0.20000000       0.00000000 </v>
   <v name="genvec3">      0.00000000       0.00000000       1.00000000 </v>
   <v name="shift">      0.00000000       0.00000000       0.00000000 </v>
  </generation>
  <varray name="kpointlist" >
   <v>       0.00000000       0.00000000       0.00000000 </v>
   <v>       0.20000000       0.00000000       0.00000000 </v>
   <v>       0.40000000       0.00000000       0.00000000 </v>
   <v>       0.00000000       0.20000000       0.00000000 </v>
   <v>       0.20000000       0.20000000       0.00000000 </v>
   <v>       0.40000000       0.20000000       0.00000000 </v>
   <v>      -0.40000000       0.20000000       0.00000000 </v>
   <v>      -0.20000000       0.20000000       0.00000000 </v>
   <v>       0.00000000       0.40000000       0.00000000 </v>
   <v>       0.20000000       0.40000000       0.00000000 </v>
   <v>       0.40000000       0.40000000       0.00000000 </v>
   <v>      -0.40000000       0.40000000       0.00000000 </v>
   <v>      -0.20000000       0.40000000       0.00000000 </v>
  </varray>
  <varray name="weights" >
   <v>       0.04000000 </v>
   <v>       0.08000000 </v>
   <v>       0.08000000 </v>
   <v>       0.08000000 </v>
   <v>       0.08000000 </v>
   <v>       0.08000000 </v>
   <v>       0.08000000 </v>
   <v>       0.08000000 </v>
   <v>       0.08000000 </v>
   <v>       0.08000000 </v>
   <v>       0.08000000 </v>
   <v>       0.08000000 </v>
   <v>       0.08000000 </v>
  </varray>
  <varray name="tetrahedronlist"  type="int" >
   <v type="int" >        2        1        1        2        5 </v>
   <v type="int" >        2        1        1        4        5 </v>
   <v type="int" >        2        1        4        4        5 </v>
   <v type="int" >        2        1        2        2        5 </v>
   <v type="int" >        2        1        2        5        5 </v>
   <v type="int" >        2        1        4        5        5 </v>
   <v type="int" >        2        2        2        3        6 </v>
   <v type="int" >        2        2        2        5        6 </v>
   <v type="int" >        2        2        5        5        6 </v>
   <v type="int" >        2        2        3        3        6 </v>
   <v type="int" >        2        2        3        6        6 </v>
   <v type="int" >        2        2        5        6        6 </v>
   <v type="int" >        4        3        3        3        7 </v>
   <v type="int" >        2        3        3        6        7 </v>
   <v type="int" >        2        3        6        6        7 </v>
   <v type="int" >        2        3        3        7        7 </v>
   <v type="int" >        2        3        6        7        7 </v>
   <v type="int" >        2        2        3        3        8 </v>
   <v type="int" >        2        3        3        7        8 </v>
   <v type="int" >        2        3        7        7        8 </v>
   <v type="int" >        2        2        2        3        8 </v>
   <v type="int" >        2        2        3        8        8 </v>
   <v type="int" >        2        3        7        8        8 </v>
   <v type="int" >        2        1        2        2        4 </v>
   <v type="int" >        2        2        2        4        8 </v>
   <v type="int" >        2        2        4        8        8 </v>
   <v type="int" >        2        1        1        2        4 </v>
   <v type="int" >        2        1        2        4        4 </v>
   <v type="int" >        2        2        4        4        8 </v>
   <v type="int" >        2        4        4        5       10 </v>
   <v type="int" >        2        4        4        9       10 </v>
   <v type="int" >        2        4        9        9       10 </v>
   <v type="int" >        2        4        5        5       10 </v>
   <v type="int" >        2        4        5       10       10 </v>
   <v type="int" >        2        4        9       10       10 </v>
   <v type="int" >        2        5        5        6       11 </v>
   <v type="int" >        2        5        5       10       11 </v>
   <v type="int" >        2        5       10       10       11 </v>
   <v type="int" >        2        5        6        6       11 </v>
   <v type="int" >        2        5        6       11       11 </v>
   <v type="int" >        2        5       10       11       11 </v>
   <v type="int" >        2        6        6        7       12 </v>
   <v type="int" >        2        6        6       11       12 </v>
   <v type="int" >        2        6       11       11       12 </v>
   <v type="int" >        2        6        7        7       12 </v>
   <v type="int" >        2        6        7       12       12 </v>
   <v type="int" >        2        6       11       12       12 </v>
   <v type="int" >        2        7        7        8       13 </v>
   <v type="int" >        2        7        7       12       13 </v>
   <v type="int" >        2        7       12       12       13 </v>
   <v type="int" >        2        7        8        8       13 </v>
   <v type="int" >        2        7        8       13       13 </v>
   <v type="int" >        2        7       12       13       13 </v>
   <v type="int" >        2        4        8        8        9 </v>
   <v type="int" >        2        8        8        9       13 </v>
   <v type="int" >        2        8        9       13       13 </v>
   <v type="int" >        2        4        4        8        9 </v>
   <v type="int" >        2        4        8        9        9 </v>
   <v type="int" >        2        8        9        9       13 </v>
   <v type="int" >        2        9        9       10       13 </v>
   <v type="int" >        4        9        9        9       13 </v>
   <v type="int" >        2        9       10       10       13 </v>
   <v type="int" >        2        9       10       13       13 </v>
   <v type="int" >        2        9        9       13       13 </v>
   <v type="int" >        2       10       10       11       12 </v>
   <v type="int" >        2       10       10       12       13 </v>
   <v type="int" >        2       10       12       13       13 </v>
   <v type="int" >        2       10       11       11       12 </v>
   <v type="int" >        2       10       11       12       12 </v>
   <v type="int" >        2       10       12       12       13 </v>
   <v type="int" >        4       11       11       11       12 </v>
   <v type="int" >        2       11       11       12       12 </v>
  </varray>
  <i name="volumeweight">      0.00666667 </i>
 </kpoints>
 <parameters>
  <separator name="general" >
   <i type="string" name="SYSTEM">unknown system</i>
   <i type="logical" name="LCOMPAT"> F  </i>
  </separator>
  <separator name="electronic" >
   <i type="string" name="PREC">accura</i>
   <i name="ENMAX">    850.00000000</i>
   <i name="ENAUG">    644.87300000</i>
   <i name="EDIFF">      0.00000010</i>
   <i type="int" name="IALGO">    38</i>
   <i type="int" name="IWAVPR">    11</i>
   <i type="int" name="NBANDS">   156</i>
   <i name="NELECT">    248.00000000</i>
   <i type="int" name="TURBO">     0</i>
   <i type="int" name="IRESTART">     0</i>
   <i type="int" name="NREBOOT">     0</i>
   <i type="int" name="NMIN">     0</i>
   <i name="EREF">      0.00000000</i>
   <separator name="electronic smearing" >
    <i type="int" name="ISMEAR">    -5</i>
    <i name="SIGMA">      0.20000000</i>
    <i name="KSPACING">      0.15000000</i>
    <i type="logical" name="KGAMMA"> T  </i>
   </separator>
   <separator name="electronic projectors" >
    <i type="logical" name="LREAL"> F  </i>
    <v name="ROPT">      0.00000000</v>
    <i type="int" name="LMAXPAW">  -100</i>
    <i type="int" name="LMAXMIX">     2</i>
    <i type="logical" name="NLSPLINE"> F  </i>
   </separator>
   <separator name="electronic startup" >
    <i type="int" name="ISTART">     0</i>
    <i type="int" name="ICHARG">     2</i>
    <i type="int" name="INIWAV">     1</i>
   </separator>
   <separator name="electronic spin" >
    <i type="int" name="ISPIN">     1</i>
    <i type="logical" name="LNONCOLLINEAR"> F  </i>
    <v name="MAGMOM">      1.00000000      1.00000000      1.00000000      1.00000000      1.00000000      1.00000000      1.00000000      1.00000000      1.00000000      1.00000000      1.00000000      1.00000000      1.00000000      1.00000000      1.00000000      1.00000000      1.00000000      1.00000000      1.00000000      1.00000000
      1.00000000      1.00000000      1.00000000      1.00000000      1.00000000      1.00000000      1.00000000      1.00000000      1.00000000      1.00000000      1.00000000      1.00000000      1.00000000      1.00000000      1.00000000      1.00000000      1.00000000      1.00000000      1.00000000      1.00000000
      1.00000000      1.00000000      1.00000000      1.00000000      1.00000000      1.00000000      1.00000000      1.00000000      1.00000000      1.00000000      1.00000000      1.00000000      1.00000000      1.00000000      1.00000000      1.00000000      1.00000000      1.00000000      1.00000000      1.00000000
      1.00000000      1.00000000</v>
    <i name="NUPDOWN">     -1.00000000</i>
    <i type="logical" name="LSORBIT"> F  </i>
    <v name="SAXIS">      0.00000000      0.00000000      1.00000000</v>
    <i type="logical" name="LSPIRAL"> F  </i>
    <v name="QSPIRAL">      0.00000000      0.00000000      0.00000000</v>
    <i type="logical" name="LZEROZ"> F  </i>
   </separator>
   <separator name="electronic exchange-correlation" >
    <i type="logical" name="LASPH"> F  </i>
    <i type="logical" name="LMETAGGA"> F  </i>
   </separator>
   <separator name="electronic convergence" >
    <i type="int" name="NELM">   150</i>
    <i type="int" name="NELMDL">    -5</i>
    <i type="int" name="NELMIN">     2</i>
    <i name="ENINI">    850.00000000</i>
    <separator name="electronic convergence detail" >
     <i type="logical" name="LDIAG"> T  </i>
     <i type="logical" name="LSUBROT"> F  </i>
     <i name="WEIMIN">      0.00100000</i>
     <i name="EBREAK">      0.00000000</i>
     <i name="DEPER">      0.30000000</i>
     <i type="int" name="NRMM">     4</i>
     <i name="TIME">      0.40000000</i>
    </separator>
   </separator>
   <separator name="electronic mixer" >
    <i name="AMIX">      0.40000000</i>
    <i name="BMIX">      1.00000000</i>
    <i name="AMIN">      0.10000000</i>
    <i name="AMIX_MAG">      1.60000000</i>
    <i name="BMIX_MAG">      1.00000000</i>
    <separator name="electronic mixer details" >
     <i type="int" name="IMIX">     4</i>
     <i type="logical" name="MIXFIRST"> F  </i>
     <i type="int" name="MAXMIX">   -45</i>
     <i name="WC">    100.00000000</i>
     <i type="int" name="INIMIX">     1</i>
     <i type="int" name="MIXPRE">     1</i>
     <i type="int" name="MREMOVE">     5</i>
    </separator>
   </separator>
   <separator name="electronic dipolcorrection" >
    <i type="logical" name="LDIPOL"> F  </i>
    <i type="logical" name="LMONO"> F  </i>
    <i type="int" name="IDIPOL">     0</i>
    <i name="EPSILON">      1.00000000</i>
    <v name="DIPOL">   -100.00000000   -100.00000000   -100.00000000</v>
    <i name="EFIELD">      0.00000000</i>
   </separator>
  </separator>
  <separator name="grids" >
   <i type="int" name="NGX">    96</i>
   <i type="int" name="NGY">    96</i>
   <i type="int" name="NGZ">   480</i>
   <i type="int" name="NGXF">   192</i>
   <i type="int" name="NGYF">   192</i>
   <i type="int" name="NGZF">   960</i>
   <i type="logical" name="ADDGRID"> F  </i>
  </separator>
  <separator name="ionic" >
   <i type="int" name="NSW">  1000</i>
   <i type="int" name="IBRION">     1</i>
   <i type="int" name="MDALGO">     0</i>
   <i type="int" name="ISIF">     3</i>
   <i name="PSTRESS">      0.00000000</i>
   <i name="EDIFFG">      0.01000000</i>
   <i type="int" name="NFREE">     0</i>
   <i name="POTIM">      0.50000000</i>
   <i name="SMASS">     -3.00000000</i>
   <i name="SCALEE">      1.00000000</i>
  </separator>
  <separator name="ionic md" >
   <i name="TEBEG">      0.00010000</i>
   <i name="TEEND">      0.00010000</i>
   <i type="int" name="NBLOCK">     1</i>
   <i type="int" name="KBLOCK">  1000</i>
   <i type="int" name="NPACO">   256</i>
   <i name="APACO">     16.00000000</i>
  </separator>
  <separator name="symmetry" >
   <i type="int" name="ISYM">     2</i>
   <i name="SYMPREC">      0.00001000</i>
  </separator>
  <separator name="dos" >
   <i type="int" name="LORBIT">     0</i>
   <v name="RWIGS">     -1.00000000</v>
   <i type="int" name="NEDOS">   301</i>
   <i name="EMIN">     10.00000000</i>
   <i name="EMAX">    -10.00000000</i>
   <i name="EFERMI">      0.00000000</i>
  </separator>
  <separator name="writing" >
   <i type="int" name="NWRITE">     2</i>
   <i type="logical" name="LWAVE"> F  </i>
   <i type="logical" name="LDOWNSAMPLE"> F  </i>
   <i type="logical" name="LCHARG"> F  </i>
   <i type="logical" name="LPARD"> F  </i>
   <i type="logical" name="LVTOT"> F  </i>
   <i type="logical" name="LVHAR"> F  </i>
   <i type="logical" name="LELF"> F  </i>
   <i type="logical" name="LOPTICS"> F  </i>
   <v name="STM">      0.00000000      0.00000000      0.00000000      0.00000000      0.00000000      0.00000000      0.00000000</v>
  </separator>
  <separator name="performance" >
   <i type="int" name="NPAR">     6</i>
   <i type="int" name="NSIM">     4</i>
   <i type="int" name="NBLK">    -1</i>
   <i type="logical" name="LPLANE"> T  </i>
   <i type="logical" name="LSCALAPACK"> F  </i>
   <i type="logical" name="LSCAAWARE"> F  </i>
   <i type="logical" name="LSCALU"> F  </i>
   <i type="logical" name="LASYNC"> F  </i>
   <i type="logical" name="LORBITALREAL"> F  </i>
  </separator>
  <separator name="miscellaneous" >
   <i type="int" name="IDIOT">     3</i>
   <i type="int" name="ISPECIAL">     0</i>
   <i type="logical" name="LMUSIC"> F  </i>
   <v name="POMASS">     12.01100000</v>
   <v name="DARWINR">      0.00000000</v>
   <v name="DARWINV">      1.00000000</v>
   <i type="logical" name="LCORR"> T  </i>
  </separator>
  <i type="logical" name="GGA_COMPAT"> T  </i>
  <i type="logical" name="LBERRY"> F  </i>
  <i type="int" name="ICORELEVEL">     0</i>
  <i type="logical" name="LDAU"> F  </i>
  <i type="int" name="I_CONSTRAINED_M">     0</i>
  <separator name="electronic exchange-correlation" >
   <i type="string" name="GGA">--</i>
   <i type="int" name="VOSKOWN">     0</i>
   <i type="logical" name="LHFCALC"> F  </i>
   <i type="string" name="PRECFOCK"></i>
   <i type="logical" name="LSYMGRAD"> F  </i>
   <i type="logical" name="LHFONE"> F  </i>
   <i type="logical" name="LRHFCALC"> F  </i>
   <i type="logical" name="LTHOMAS"> F  </i>
   <i type="logical" name="LMODELHF"> F  </i>
   <i name="ENCUT4O">     -1.00000000</i>
   <i type="int" name="EXXOEP">     0</i>
   <i type="int" name="FOURORBIT">     0</i>
   <i name="AEXX">      0.00000000</i>
   <i name="HFALPHA">      0.00000000</i>
   <i name="MCALPHA">      0.00000000</i>
   <i name="ALDAX">      1.00000000</i>
   <i name="AGGAX">      1.00000000</i>
   <i name="ALDAC">      1.00000000</i>
   <i name="AGGAC">      1.00000000</i>
   <i type="int" name="NKREDX">     1</i>
   <i type="int" name="NKREDY">     1</i>
   <i type="int" name="NKREDZ">     1</i>
   <i type="logical" name="SHIFTRED"> F  </i>
   <i type="logical" name="ODDONLY"> F  </i>
   <i type="logical" name="EVENONLY"> F  </i>
   <i type="int" name="LMAXFOCK">     0</i>
   <i type="int" name="NMAXFOCKAE">     0</i>
   <i type="logical" name="LFOCKAEDFT"> F  </i>
   <i name="HFSCREEN">      0.00000000</i>
   <i name="HFSCREENC">      0.00000000</i>
   <i type="int" name="NBANDSGWLOW">     0</i>
  </separator>
  <separator name="vdW DFT" >
   <i type="logical" name="LUSE_VDW"> F  </i>
   <i name="Zab_VDW">     -0.84910000</i>
   <i name="PARAM1">      0.12340000</i>
   <i name="PARAM2">      1.00000000</i>
   <i name="PARAM3">      0.00000000</i>
  </separator>
  <separator name="model GW" >
   <i type="int" name="MODEL_GW">     0</i>
   <i name="MODEL_EPS0">     40.63430061</i>
   <i name="MODEL_ALPHA">      1.00000000</i>
  </separator>
  <separator name="linear response parameters" >
   <i type="logical" name="LEPSILON"> F  </i>
   <i type="logical" name="LRPA"> F  </i>
   <i type="logical" name="LNABLA"> F  </i>
   <i type="logical" name="LVEL"> F  </i>
   <i type="int" name="KINTER">     0</i>
   <i name="CSHIFT">      0.10000000</i>
   <i name="OMEGAMAX">     -1.00000000</i>
   <i name="DEG_THRESHOLD">      0.00200000</i>
   <i name="RTIME">     -0.10000000</i>
   <i name="WPLASMAI">      0.00000000</i>
   <v name="DFIELD">      0.00000000      0.00000000      0.00000000</v>
   <v name="WPLASMA">      0.00000000      0.00000000      0.00000000      0.00000000      0.00000000      0.00000000      0.00000000      0.00000000      0.00000000</v>
  </separator>
  <separator name="orbital magnetization" >
   <i type="logical" name="NUCIND"> F  </i>
   <v name="MAGPOS">      0.00000000      0.00000000      0.00000000</v>
   <i type="logical" name="LNICSALL"> T  </i>
   <i type="logical" name="ORBITALMAG"> F  </i>
   <i type="logical" name="LMAGBLOCH"> F  </i>
   <i type="logical" name="LCHIMAG"> F  </i>
   <i type="logical" name="LGAUGE"> T  </i>
   <i type="int" name="MAGATOM">     0</i>
   <v name="MAGDIPOL">      0.00000000      0.00000000      0.00000000</v>
   <v name="AVECCONST">      0.00000000      0.00000000      0.00000000</v>
  </separator>
  <separator name="response functions" >
   <i type="logical" name="LADDER"> F  </i>
   <i type="logical" name="LRPAFORCE"> F  </i>
   <i type="logical" name="LFXC"> F  </i>
   <i type="logical" name="LHARTREE"> T  </i>
   <i type="int" name="IBSE">     0</i>
   <v type="int" name="KPOINT">    -1     0     0     0</v>
   <i type="logical" name="LTCTE"> F  </i>
   <i type="logical" name="LTETE"> F  </i>
   <i type="logical" name="LTRIPLET"> F  </i>
   <i type="logical" name="LFXCEPS"> F  </i>
   <i type="logical" name="LFXHEG"> F  </i>
   <i type="int" name="NATURALO">     2</i>
   <i type="logical" name="L2ORDER"> F  </i>
   <i type="logical" name="LMP2LT"> F  </i>
   <i type="logical" name="LUSEW"> F  </i>
   <i name="ENCUTGW">     -2.00000000</i>
   <i name="ENCUTGWSOFT">     -2.00000000</i>
   <i name="ENCUTLF">     -1.00000000</i>
   <i type="int" name="LMAXMP2">    -1</i>
   <i name="SCISSOR">      0.00000000</i>
   <i type="int" name="NOMEGA">     0</i>
   <i type="int" name="NOMEGAR">     0</i>
   <i type="int" name="NBANDSGW">    -1</i>
   <i type="int" name="NBANDSO">    -1</i>
   <i type="int" name="NBANDSV">    -1</i>
   <i type="int" name="NELM">   150</i>
   <i type="int" name="NELMHF">     1</i>
   <i type="int" name="DIM">     3</i>
   <i type="int" name="ANTIRES">     0</i>
   <i name="OMEGAMAX">    -30.00000000</i>
   <i name="OMEGAMIN">    -30.00000000</i>
   <i name="OMEGATL">   -200.00000000</i>
   <i type="int" name="OMEGAGRID">   140</i>
   <i name="CSHIFT">     -0.10000000</i>
   <i type="logical" name="SELFENERGY"> F  </i>
   <i type="logical" name="LSPECTRAL"> F  </i>
   <i type="logical" name="LSPECTRALGW"> F  </i>
   <i type="logical" name="LSINGLES"> F  </i>
   <i type="logical" name="LFERMIGW"> F  </i>
   <i type="logical" name="ODDONLYGW"> F  </i>
   <i type="logical" name="EVENONLYGW"> F  </i>
   <i type="int" name="NKREDLFX">     1</i>
   <i type="int" name="NKREDLFY">     1</i>
   <i type="int" name="NKREDLFZ">     1</i>
   <i type="int" name="MAXMEM">  2800</i>
   <i type="int" name="TELESCOPE">     0</i>
   <i type="int" name="TAUPAR">     1</i>
   <i type="int" name="OMEGAPAR">    -1</i>
   <i name="LAMBDA">      1.00000000</i>
  </separator>
  <separator name="External order field" >
   <i name="OFIELD_KAPPA">      0.00000000</i>
   <v name="OFIELD_K">      0.00000000      0.00000000      0.00000000</v>
   <i name="OFIELD_Q6_NEAR">      0.00000000</i>
   <i name="OFIELD_Q6_FAR">      0.00000000</i>
   <i name="OFIELD_A">      0.00000000</i>
  </separator>
 </parameters>
 <atominfo>
  <atoms>      62 </atoms>
  <types>       1 </types>
  <array name="atoms" >
   <dimension dim="1">ion</dimension>
   <field type="string">element</field>
   <field type="int">atomtype</field>
   <set>
    <rc><c>C </c><c>   1</c></rc>
    <rc><c>C </c><c>   1</c></rc>
    <rc><c>C </c><c>   1</c></rc>
    <rc><c>C </c><c>   1</c></rc>
    <rc><c>C </c><c>   1</c></rc>
    <rc><c>C </c><c>   1</c></rc>
    <rc><c>C </c><c>   1</c></rc>
    <rc><c>C </c><c>   1</c></rc>
    <rc><c>C </c><c>   1</c></rc>
    <rc><c>C </c><c>   1</c></rc>
    <rc><c>C </c><c>   1</c></rc>
    <rc><c>C </c><c>   1</c></rc>
    <rc><c>C </c><c>   1</c></rc>
    <rc><c>C </c><c>   1</c></rc>
    <rc><c>C </c><c>   1</c></rc>
    <rc><c>C </c><c>   1</c></rc>
    <rc><c>C </c><c>   1</c></rc>
    <rc><c>C </c><c>   1</c></rc>
    <rc><c>C </c><c>   1</c></rc>
    <rc><c>C </c><c>   1</c></rc>
    <rc><c>C </c><c>   1</c></rc>
    <rc><c>C </c><c>   1</c></rc>
    <rc><c>C </c><c>   1</c></rc>
    <rc><c>C </c><c>   1</c></rc>
    <rc><c>C </c><c>   1</c></rc>
    <rc><c>C </c><c>   1</c></rc>
    <rc><c>C </c><c>   1</c></rc>
    <rc><c>C </c><c>   1</c></rc>
    <rc><c>C </c><c>   1</c></rc>
    <rc><c>C </c><c>   1</c></rc>
    <rc><c>C </c><c>   1</c></rc>
    <rc><c>C </c><c>   1</c></rc>
    <rc><c>C </c><c>   1</c></rc>
    <rc><c>C </c><c>   1</c></rc>
    <rc><c>C </c><c>   1</c></rc>
    <rc><c>C </c><c>   1</c></rc>
    <rc><c>C </c><c>   1</c></rc>
    <rc><c>C </c><c>   1</c></rc>
    <rc><c>C </c><c>   1</c></rc>
    <rc><c>C </c><c>   1</c></rc>
    <rc><c>C </c><c>   1</c></rc>
    <rc><c>C </c><c>   1</c></rc>
    <rc><c>C </c><c>   1</c></rc>
    <rc><c>C </c><c>   1</c></rc>
    <rc><c>C </c><c>   1</c></rc>
    <rc><c>C </c><c>   1</c></rc>
    <rc><c>C </c><c>   1</c></rc>
    <rc><c>C </c><c>   1</c></rc>
    <rc><c>C </c><c>   1</c></rc>
    <rc><c>C </c><c>   1</c></rc>
    <rc><c>C </c><c>   1</c></rc>
    <rc><c>C </c><c>   1</c></rc>
    <rc><c>C </c><c>   1</c></rc>
    <rc><c>C </c><c>   1</c></rc>
    <rc><c>C </c><c>   1</c></rc>
    <rc><c>C </c><c>   1</c></rc>
    <rc><c>C </c><c>   1</c></rc>
    <rc><c>C </c><c>   1</c></rc>
    <rc><c>C </c><c>   1</c></rc>
    <rc><c>C </c><c>   1</c></rc>
    <rc><c>C </c><c>   1</c></rc>
    <rc><c>C </c><c>   1</c></rc>
   </set>
  </array>
  <array name="atomtypes" >
   <dimension dim="1">type</dimension>
   <field type="int">atomspertype</field>
   <field type="string">element</field>
   <field>mass</field>
   <field>valence</field>
   <field type="string">pseudopotential</field>
   <set>
    <rc><c>  62</c><c>C </c><c>     12.01100000</c><c>      4.00000000</c><c>  PAW_PBE C 08Apr2002                   </c></rc>
   </set>
  </array>
 </atominfo>
 <structure name="initialpos" >
  <crystal>
   <varray name="basis" >
    <v>       9.84672000       0.00000000       0.00000000 </v>
    <v>       4.93000000       8.52848000       0.00000000 </v>
    <v>       0.00000000       0.00000000      50.00000000 </v>
   </varray>
   <i name="volume">   4198.87772928 </i>
   <varray name="rec_basis" >
    <v>       0.10155666      -0.05870616       0.00000000 </v>
    <v>       0.00000000       0.11725419       0.00000000 </v>
    <v>       0.00000000       0.00000000       0.02000000 </v>
   </varray>
  </crystal>
  <varray name="positions" >
   <v>       0.00042034       0.00035945       0.45749584 </v>
   <v>       0.08339851       0.08340258       0.45627531 </v>
   <v>       0.00042555       0.00036596       0.38250926 </v>
   <v>       0.08339673       0.08340309       0.38373320 </v>
   <v>       0.99866874       0.25054577       0.45536203 </v>
   <v>       0.08341520       0.33289959       0.45626585 </v>
   <v>       0.99867560       0.25054485       0.38464434 </v>
   <v>       0.08341295       0.33290881       0.38374214 </v>
   <v>       0.00041292       0.49896431       0.45748135 </v>
   <v>       0.08408213       0.58279119       0.45591511 </v>
   <v>       0.00041990       0.49895819       0.38252243 </v>
   <v>       0.08408595       0.58279795       0.38408358 </v>
   <v>       0.99997967       0.74988911       0.45721279 </v>
   <v>       0.08409652       0.83282933       0.45592510 </v>
   <v>       0.99998468       0.74988798       0.38278437 </v>
   <v>       0.08410234       0.83282885       0.38407455 </v>
   <v>       0.25056023       0.99867548       0.45534460 </v>
   <v>       0.33291295       0.08340865       0.45624794 </v>
   <v>       0.25055780       0.99868257       0.38466141 </v>
   <v>       0.33292248       0.08340772       0.38375965 </v>
   <v>       0.25053795       0.25050355       0.45533856 </v>
   <v>       0.33378329       0.33372390       0.44970508 </v>
   <v>       0.25053352       0.25050362       0.38466742 </v>
   <v>       0.33378959       0.33373049       0.39029393 </v>
   <v>       0.24550476       0.50128449       0.44804756 </v>
   <v>       0.29230634       0.60369959       0.43431926 </v>
   <v>       0.24550899       0.50128508       0.39194839 </v>
   <v>       0.29231887       0.60369506       0.40567723 </v>
   <v>       0.24553331       0.75291226       0.44805518 </v>
   <v>       0.33380659       0.83216909       0.44971044 </v>
   <v>       0.24553990       0.75291318       0.39194129 </v>
   <v>       0.33381591       0.83216255       0.39028865 </v>
   <v>       0.49900761       0.00036102       0.45745949 </v>
   <v>       0.58284209       0.08397902       0.45589509 </v>
   <v>       0.49899748       0.00036983       0.38254350 </v>
   <v>       0.58284633       0.08398523       0.38410272 </v>
   <v>       0.50134462       0.24536135       0.44804095 </v>
   <v>       0.60376544       0.29216693       0.43431521 </v>
   <v>       0.50134376       0.24536648       0.39195539 </v>
   <v>       0.60376179       0.29217887       0.40568208 </v>
   <v>       0.60380378       0.60380973       0.43431627 </v>
   <v>       0.60380273       0.60381137       0.40568099 </v>
   <v>       0.50136607       0.75301887       0.44804382 </v>
   <v>       0.58284695       0.83291641       0.45589166 </v>
   <v>       0.50136929       0.75302290       0.39195309 </v>
   <v>       0.58285207       0.83291900       0.38410637 </v>
   <v>       0.74996574       0.99987699       0.45719809 </v>
   <v>       0.83287393       0.08402251       0.45592277 </v>
   <v>       0.74996477       0.99988171       0.38279816 </v>
   <v>       0.83287078       0.08403181       0.38407676 </v>
   <v>       0.75294647       0.24546385       0.44806549 </v>
   <v>       0.83212590       0.33379958       0.44973034 </v>
   <v>       0.75294624       0.24547019       0.39193168 </v>
   <v>       0.83211671       0.33381094       0.39026985 </v>
   <v>       0.75297045       0.50134057       0.44806064 </v>
   <v>       0.83291010       0.58282392       0.45590900 </v>
   <v>       0.75297516       0.50134434       0.39193675 </v>
   <v>       0.83290917       0.58283174       0.38408983 </v>
   <v>       0.74995227       0.74990164       0.45718765 </v>
   <v>       0.83330423       0.83323813       0.45840992 </v>
   <v>       0.74995424       0.74990387       0.38280836 </v>
   <v>       0.83330707       0.83324695       0.38158422 </v>
  </varray>
 </structure>
 <calculation>
  <scstep>
   <time name="dav">   70.60   70.77</time>
   <time name="total">   71.02   71.23</time>
   <energy>
    <i name="alphaZ">     75.20389891 </i>
    <i name="ewald"> 209383.82885611 </i>
    <i name="hartreedc">-215883.27378976 </i>
    <i name="XCdc">    816.99935352 </i>
    <i name="pawpsdc">   6728.36687556 </i>
    <i name="pawaedc">  -6763.67003570 </i>
    <i name="eentropy">      0.00000000 </i>
    <i name="bandstr">   -493.96024376 </i>
    <i name="atom">   9123.59704331 </i>
    <i name="e_fr_energy">   2987.09195820 </i>
    <i name="e_wo_entrp">   2987.09195820 </i>
    <i name="e_0_energy">   2987.09195820 </i>
   </energy>
  </scstep>
  <scstep>
   <time name="dav">   98.73   99.09</time>
   <time name="total">   98.74   99.10</time>
   <energy>
    <i name="e_fr_energy">    142.89100718 </i>
    <i name="e_wo_entrp">    142.89100718 </i>
    <i name="e_0_energy">    142.89100718 </i>
   </energy>
  </scstep>
  <scstep>
   <time name="dav">   80.98   81.18</time>
   <time name="total">   80.98   81.18</time>
   <energy>
    <i name="e_fr_energy">   -557.50845207 </i>
    <i name="e_wo_entrp">   -557.50845207 </i>
    <i name="e_0_energy">   -557.50845207 </i>
   </energy>
  </scstep>
  <scstep>
   <time name="dav">   80.16   80.36</time>
   <time name="total">   80.16   80.36</time>
   <energy>
    <i name="e_fr_energy">   -592.70120525 </i>
    <i name="e_wo_entrp">   -592.70120525 </i>
    <i name="e_0_energy">   -592.70120525 </i>
   </energy>
  </scstep>
  <scstep>
   <time name="dav">   87.19   87.40</time>
   <time name="total">   90.93   91.16</time>
   <energy>
    <i name="e_fr_energy">   -593.70523117 </i>
    <i name="e_wo_entrp">   -593.70523117 </i>
    <i name="e_0_energy">   -593.70523117 </i>
   </energy>
  </scstep>
  <scstep>
   <time name="dav">   75.53   75.71</time>
   <time name="total">   79.68   79.88</time>
   <energy>
    <i name="e_fr_energy">   -567.22288754 </i>
    <i name="e_wo_entrp">   -567.22288754 </i>
    <i name="e_0_energy">   -567.22288754 </i>
   </energy>
  </scstep>
  <scstep>
   <time name="dav">   74.54   74.71</time>
   <time name="total">   78.65   78.85</time>
   <energy>
    <i name="e_fr_energy">   -558.24136378 </i>
    <i name="e_wo_entrp">   -558.24136378 </i>
    <i name="e_0_energy">   -558.24136378 </i>
   </energy>
  </scstep>
  <scstep>
   <time name="dav">   77.89   78.07</time>
   <time name="total">   82.06   82.26</time>
   <energy>
    <i name="e_fr_energy">   -558.18569200 </i>
    <i name="e_wo_entrp">   -558.18569200 </i>
    <i name="e_0_energy">   -558.18569200 </i>
   </energy>
  </scstep>
  <scstep>
   <time name="dav">   76.82   77.01</time>
   <time name="total">   80.90   81.10</time>
   <energy>
    <i name="e_fr_energy">   -558.15192636 </i>
    <i name="e_wo_entrp">   -558.15192636 </i>
    <i name="e_0_energy">   -558.15192636 </i>
   </energy>
  </scstep>
  <scstep>
   <time name="dav">   76.00   76.19</time>
   <time name="total">   80.07   80.28</time>
   <energy>
    <i name="e_fr_energy">   -558.14437496 </i>
    <i name="e_wo_entrp">   -558.14437496 </i>
    <i name="e_0_energy">   -558.14437496 </i>
   </energy>
  </scstep>
  <scstep>
   <time name="dav">   73.76   73.94</time>
   <time name="total">   77.84   78.03</time>
   <energy>
    <i name="e_fr_energy">   -558.13785075 </i>
    <i name="e_wo_entrp">   -558.13785075 </i>
    <i name="e_0_energy">   -558.13785075 </i>
   </energy>
  </scstep>
  <scstep>
   <time name="dav">   73.24   73.42</time>
   <time name="total">   77.32   77.52</time>
   <energy>
    <i name="e_fr_energy">   -558.13323117 </i>
    <i name="e_wo_entrp">   -558.13323117 </i>
    <i name="e_0_energy">   -558.13323117 </i>
   </energy>
  </scstep>
  <scstep>
   <time name="dav">   75.32   75.50</time>
   <time name="total">   79.35   79.55</time>
   <energy>
    <i name="e_fr_energy">   -558.13557372 </i>
    <i name="e_wo_entrp">   -558.13557372 </i>
    <i name="e_0_energy">   -558.13557372 </i>
   </energy>
  </scstep>
  <scstep>
   <time name="dav">   73.43   73.62</time>
   <time name="total">   77.53   77.75</time>
   <energy>
    <i name="e_fr_energy">   -558.14010246 </i>
    <i name="e_wo_entrp">   -558.14010246 </i>
    <i name="e_0_energy">   -558.14010246 </i>
   </energy>
  </scstep>
  <scstep>
   <time name="dav">   71.30   71.53</time>
   <time name="total">   75.36   75.61</time>
   <energy>
    <i name="e_fr_energy">   -558.14443021 </i>
    <i name="e_wo_entrp">   -558.14443021 </i>
    <i name="e_0_energy">   -558.14443021 </i>
   </energy>
  </scstep>
  <scstep>
   <time name="dav">   72.43   72.61</time>
   <time name="total">   76.51   76.71</time>
   <energy>
    <i name="e_fr_energy">   -558.14747412 </i>
    <i name="e_wo_entrp">   -558.14747412 </i>
    <i name="e_0_energy">   -558.14747412 </i>
   </energy>
  </scstep>
  <scstep>
   <time name="dav">   76.09   76.27</time>
   <time name="total">   80.15   80.35</time>
   <energy>
    <i name="e_fr_energy">   -558.14950846 </i>
    <i name="e_wo_entrp">   -558.14950846 </i>
    <i name="e_0_energy">   -558.14950846 </i>
   </energy>
  </scstep>
  <scstep>
   <time name="dav">   72.99   73.17</time>
   <time name="total">   77.03   77.25</time>
   <energy>
    <i name="e_fr_energy">   -558.15060862 </i>
    <i name="e_wo_entrp">   -558.15060862 </i>
    <i name="e_0_energy">   -558.15060862 </i>
   </energy>
  </scstep>
  <scstep>
   <time name="dav">   75.06   75.24</time>
   <time name="total">   79.12   79.32</time>
   <energy>
    <i name="e_fr_energy">   -558.15108432 </i>
    <i name="e_wo_entrp">   -558.15108432 </i>
    <i name="e_0_energy">   -558.15108432 </i>
   </energy>
  </scstep>
  <scstep>
   <time name="dav">   71.82   72.00</time>
   <time name="total">   75.88   76.07</time>
   <energy>
    <i name="e_fr_energy">   -558.15136163 </i>
    <i name="e_wo_entrp">   -558.15136163 </i>
    <i name="e_0_energy">   -558.15136163 </i>
   </energy>
  </scstep>
  <scstep>
   <time name="dav">   66.03   66.19</time>
   <time name="total">   70.14   70.32</time>
   <energy>
    <i name="e_fr_energy">   -558.15147696 </i>
    <i name="e_wo_entrp">   -558.15147696 </i>
    <i name="e_0_energy">   -558.15147696 </i>
   </energy>
  </scstep>
  <scstep>
   <time name="dav">   63.25   63.40</time>
   <time name="total">   67.29   67.46</time>
   <energy>
    <i name="e_fr_energy">   -558.15152894 </i>
    <i name="e_wo_entrp">   -558.15152894 </i>
    <i name="e_0_energy">   -558.15152894 </i>
   </energy>
  </scstep>
  <scstep>
   <time name="dav">   57.48   57.62</time>
   <time name="total">   61.59   61.74</time>
   <energy>
    <i name="e_fr_energy">   -558.15155362 </i>
    <i name="e_wo_entrp">   -558.15155362 </i>
    <i name="e_0_energy">   -558.15155362 </i>
   </energy>
  </scstep>
  <scstep>
   <time name="dav">   52.82   52.95</time>
   <time name="total">   56.90   57.04</time>
   <energy>
    <i name="e_fr_energy">   -558.15156536 </i>
    <i name="e_wo_entrp">   -558.15156536 </i>
    <i name="e_0_energy">   -558.15156536 </i>
   </energy>
  </scstep>
  <scstep>
   <time name="dav">   51.72   51.85</time>
   <time name="total">   55.82   55.96</time>
   <energy>
    <i name="e_fr_energy">   -558.15157171 </i>
    <i name="e_wo_entrp">   -558.15157171 </i>
    <i name="e_0_energy">   -558.15157171 </i>
   </energy>
  </scstep>
  <scstep>
   <time name="dav">   50.40   50.52</time>
   <time name="total">   54.48   54.62</time>
   <energy>
    <i name="e_fr_energy">   -558.15157386 </i>
    <i name="e_wo_entrp">   -558.15157386 </i>
    <i name="e_0_energy">   -558.15157386 </i>
   </energy>
  </scstep>
  <scstep>
   <time name="dav">   49.30   49.41</time>
   <time name="total">   53.35   53.48</time>
   <energy>
    <i name="e_fr_energy">   -558.15157491 </i>
    <i name="e_wo_entrp">   -558.15157491 </i>
    <i name="e_0_energy">   -558.15157491 </i>
   </energy>
  </scstep>
  <scstep>
   <time name="dav">   50.95   51.07</time>
   <time name="total">   55.02   55.16</time>
   <energy>
    <i name="e_fr_energy">   -558.15157535 </i>
    <i name="e_wo_entrp">   -558.15157535 </i>
    <i name="e_0_energy">   -558.15157535 </i>
   </energy>
  </scstep>
  <scstep>
   <time name="dav">   48.51   48.62</time>
   <time name="total">   52.59   52.72</time>
   <energy>
    <i name="e_fr_energy">   -558.15157551 </i>
    <i name="e_wo_entrp">   -558.15157551 </i>
    <i name="e_0_energy">   -558.15157551 </i>
   </energy>
  </scstep>
  <scstep>
   <time name="dav">   52.34   52.47</time>
   <time name="total">   52.71   52.84</time>
   <energy>
    <i name="alphaZ">     75.20389891 </i>
    <i name="ewald"> 209383.82885611 </i>
    <i name="hartreedc">-216899.98829645 </i>
    <i name="XCdc">    850.89028105 </i>
    <i name="pawpsdc">  25059.90534899 </i>
    <i name="pawaedc"> -25101.70707222 </i>
    <i name="eentropy">      0.00000000 </i>
    <i name="bandstr">  -3049.88163528 </i>
    <i name="atom">   9123.59704331 </i>
    <i name="e_fr_energy">   -558.15157557 </i>
    <i name="e_wo_entrp">   -558.15157557 </i>
    <i name="e_0_energy">   -558.15157557 </i>
   </energy>
  </scstep>
  <structure>
   <crystal>
    <varray name="basis" >
     <v>       9.84672000       0.00000000       0.00000000 </v>
     <v>       4.93000000       8.52848000       0.00000000 </v>
     <v>       0.00000000       0.00000000      50.00000000 </v>
    </varray>
    <i name="volume">   4198.87772928 </i>
    <varray name="rec_basis" >
     <v>       0.10155666      -0.05870616       0.00000000 </v>
     <v>       0.00000000       0.11725419       0.00000000 </v>
     <v>       0.00000000       0.00000000       0.02000000 </v>
    </varray>
   </crystal>
   <varray name="positions" >
    <v>       0.00042034       0.00035945       0.45749584 </v>
    <v>       0.08339851       0.08340258       0.45627531 </v>
    <v>       0.00042555       0.00036596       0.38250926 </v>
    <v>       0.08339673       0.08340309       0.38373320 </v>
    <v>       0.99866874       0.25054577       0.45536203 </v>
    <v>       0.08341520       0.33289959       0.45626585 </v>
    <v>       0.99867560       0.25054485       0.38464434 </v>
    <v>       0.08341295       0.33290881       0.38374214 </v>
    <v>       0.00041292       0.49896431       0.45748135 </v>
    <v>       0.08408213       0.58279119       0.45591511 </v>
    <v>       0.00041990       0.49895819       0.38252243 </v>
    <v>       0.08408595       0.58279795       0.38408358 </v>
    <v>       0.99997967       0.74988911       0.45721279 </v>
    <v>       0.08409652       0.83282933       0.45592510 </v>
    <v>       0.99998468       0.74988798       0.38278437 </v>
    <v>       0.08410234       0.83282885       0.38407455 </v>
    <v>       0.25056023       0.99867548       0.45534460 </v>
    <v>       0.33291295       0.08340865       0.45624794 </v>
    <v>       0.25055780       0.99868257       0.38466141 </v>
    <v>       0.33292248       0.08340772       0.38375965 </v>
    <v>       0.25053795       0.25050355       0.45533856 </v>
    <v>       0.33378329       0.33372390       0.44970508 </v>
    <v>       0.25053352       0.25050362       0.38466742 </v>
    <v>       0.33378959       0.33373049       0.39029393 </v>
    <v>       0.24550476       0.50128449       0.44804756 </v>
    <v>       0.29230634       0.60369959       0.43431926 </v>
    <v>       0.24550899       0.50128508       0.39194839 </v>
    <v>       0.29231887       0.60369506       0.40567723 </v>
    <v>       0.24553331       0.75291226       0.44805518 </v>
    <v>       0.33380659       0.83216909       0.44971044 </v>
    <v>       0.24553990       0.75291318       0.39194129 </v>
    <v>       0.33381591       0.83216255       0.39028865 </v>
    <v>       0.49900761       0.00036102       0.45745949 </v>
    <v>       0.58284209       0.08397902       0.45589509 </v>
    <v>       0.49899748       0.00036983       0.38254350 </v>
    <v>       0.58284633       0.08398523       0.38410272 </v>
    <v>       0.50134462       0.24536135       0.44804095 </v>
    <v>       0.60376544       0.29216693       0.43431521 </v>
    <v>       0.50134376       0.24536648       0.39195539 </v>
    <v>       0.60376179       0.29217887       0.40568208 </v>
    <v>       0.60380378       0.60380973       0.43431627 </v>
    <v>       0.60380273       0.60381137       0.40568099 </v>
    <v>       0.50136607       0.75301887       0.44804382 </v>
    <v>       0.58284695       0.83291641       0.45589166 </v>
    <v>       0.50136929       0.75302290       0.39195309 </v>
    <v>       0.58285207       0.83291900       0.38410637 </v>
    <v>       0.74996574       0.99987699       0.45719809 </v>
    <v>       0.83287393       0.08402251       0.45592277 </v>
    <v>       0.74996477       0.99988171       0.38279816 </v>
    <v>       0.83287078       0.08403181       0.38407676 </v>
    <v>       0.75294647       0.24546385       0.44806549 </v>
    <v>       0.83212590       0.33379958       0.44973034 </v>
    <v>       0.75294624       0.24547019       0.39193168 </v>
    <v>       0.83211671       0.33381094       0.39026985 </v>
    <v>       0.75297045       0.50134057       0.44806064 </v>
    <v>       0.83291010       0.58282392       0.45590900 </v>
    <v>       0.75297516       0.50134434       0.39193675 </v>
    <v>       0.83290917       0.58283174       0.38408983 </v>
    <v>       0.74995227       0.74990164       0.45718765 </v>
    <v>       0.83330423       0.83323813       0.45840992 </v>
    <v>       0.74995424       0.74990387       0.38280836 </v>
    <v>       0.83330707       0.83324695       0.38158422 </v>
   </varray>
  </structure>
  <varray name="forces" >
   <v>      -0.04577604      -0.02661828      -0.02134386 </v>
   <v>       0.02833112       0.01615287      -0.01753918 </v>
   <v>      -0.05110013      -0.02919313       0.01965304 </v>
   <v>       0.03290647       0.01842478       0.01658975 </v>
   <v>      -0.02397440       0.00337990      -0.00883119 </v>
   <v>      -0.00542397      -0.01527325      -0.01753049 </v>
   <v>      -0.02704123       0.00615910       0.00948471 </v>
   <v>      -0.00585846      -0.02120575       0.01656285 </v>
   <v>       0.00741880       0.04327761      -0.02091843 </v>
   <v>      -0.03304704      -0.03712774      -0.02420384 </v>
   <v>       0.00767501       0.05069158       0.01947867 </v>
   <v>      -0.03608215      -0.04092425       0.02388005 </v>
   <v>       0.01298814      -0.01346547      -0.02623044 </v>
   <v>       0.02199037       0.05179558      -0.02419645 </v>
   <v>       0.01345211      -0.01038254       0.02596571 </v>
   <v>       0.02161159       0.05412478       0.02387166 </v>
   <v>      -0.00929844      -0.02481595      -0.00912181 </v>
   <v>      -0.01556422       0.00388162      -0.01756263 </v>
   <v>      -0.00777306      -0.02764765       0.00952467 </v>
   <v>      -0.02296864       0.00734126       0.01665520 </v>
   <v>       0.02249293       0.01206223      -0.00945273 </v>
   <v>      -0.05172785      -0.02894273      -0.00238387 </v>
   <v>       0.02706633       0.01342054       0.00990814 </v>
   <v>      -0.05682927      -0.03123450       0.00158621 </v>
   <v>       0.00107401       0.06163644      -0.01764637 </v>
   <v>      -0.01058443       0.00776699       0.05365612 </v>
   <v>       0.00373161       0.06329173       0.01963851 </v>
   <v>      -0.01184807       0.00860983      -0.05467050 </v>
   <v>      -0.05501024      -0.03885499      -0.01928955 </v>
   <v>       0.00566596       0.06756146       0.00045910 </v>
   <v>      -0.05503285      -0.04153910       0.02127117 </v>
   <v>       0.00498710       0.07223421      -0.00078383 </v>
   <v>       0.03953451      -0.01495963      -0.02105718 </v>
   <v>      -0.04830226      -0.00903277      -0.02422398 </v>
   <v>       0.04769827      -0.01821329       0.01949711 </v>
   <v>      -0.05284574      -0.00998696       0.02423018 </v>
   <v>       0.05500094      -0.02987241      -0.01806350 </v>
   <v>       0.00232603      -0.01397510       0.05752303 </v>
   <v>       0.05829496      -0.02892183       0.01984851 </v>
   <v>       0.00157669      -0.01550170      -0.05871390 </v>
   <v>       0.01050961       0.00555079       0.05012630 </v>
   <v>       0.01153058       0.00564024      -0.05138394 </v>
   <v>       0.04982943      -0.03265786      -0.01774443 </v>
   <v>      -0.01814112       0.04092292      -0.02390910 </v>
   <v>       0.05031154      -0.03523510       0.01922274 </v>
   <v>      -0.01980286       0.04280921       0.02413942 </v>
   <v>      -0.00480040       0.01753011      -0.02585827 </v>
   <v>       0.05622805      -0.00522743      -0.02448355 </v>
   <v>      -0.00277751       0.01870862       0.02596128 </v>
   <v>       0.05825837      -0.00782411       0.02399496 </v>
   <v>      -0.06221240      -0.02863217      -0.01984222 </v>
   <v>       0.05971356      -0.02802856      -0.00024231 </v>
   <v>      -0.06428398      -0.02664955       0.02184560 </v>
   <v>       0.06440969      -0.03158558      -0.00066140 </v>
   <v>      -0.00273453       0.06000514      -0.01795890 </v>
   <v>       0.02604003      -0.03646665      -0.02392547 </v>
   <v>      -0.00577896       0.06209156       0.01973564 </v>
   <v>       0.02839444      -0.03948052       0.02379179 </v>
   <v>       0.00524774       0.00223242      -0.02362654 </v>
   <v>      -0.01759385      -0.00958974      -0.00935988 </v>
   <v>       0.00717890       0.00445804       0.02339254 </v>
   <v>      -0.01926076      -0.01269530       0.01126509 </v>
  </varray>
  <varray name="stress" >
   <v>      -7.13486423      -0.31212229      -0.00011980 </v>
   <v>      -0.31212225      -7.22260835       0.00009463 </v>
   <v>      -0.00011980       0.00009463      -0.69306521 </v>
  </varray>
  <energy>
   <i name="e_fr_energy">   -565.11110004 </i>
   <i name="e_wo_entrp">   -565.11110004 </i>
   <i name="e_0_energy">      0.00000000 </i>
  </energy>
  <time name="totalsc"> 2382.24 2388.47</time>
 </calculation>
 <calculation>
  <scstep>
   <time name="dav">   69.01   69.18</time>
   <time name="total">   73.11   73.29</time>
   <energy>
    <i name="alphaZ">     77.56467751 </i>
    <i name="ewald"> 215566.62589203 </i>
    <i name="hartreedc">-223074.03810730 </i>
    <i name="XCdc">    859.34431173 </i>
    <i name="pawpsdc">  25059.90399707 </i>
    <i name="pawaedc"> -25101.70571989 </i>
    <i name="eentropy">      0.00000000 </i>
    <i name="bandstr">  -3069.07000393 </i>
    <i name="atom">   9123.59704331 </i>
    <i name="e_fr_energy">   -557.77790946 </i>
    <i name="e_wo_entrp">   -557.77790946 </i>
    <i name="e_0_energy">   -557.77790946 </i>
   </energy>
  </scstep>
  <scstep>
   <time name="dav">   73.93   74.11</time>
   <time name="total">   78.04   78.28</time>
   <energy>
    <i name="e_fr_energy">   -557.68951262 </i>
    <i name="e_wo_entrp">   -557.68951262 </i>
    <i name="e_0_energy">   -557.68951262 </i>
   </energy>
  </scstep>
  <scstep>
   <time name="dav">   70.83   71.00</time>
   <time name="total">   74.92   75.11</time>
   <energy>
    <i name="e_fr_energy">   -557.64220757 </i>
    <i name="e_wo_entrp">   -557.64220757 </i>
    <i name="e_0_energy">   -557.64220757 </i>
   </energy>
  </scstep>
  <scstep>
   <time name="dav">   74.58   74.76</time>
   <time name="total">   78.68   78.87</time>
   <energy>
    <i name="e_fr_energy">   -557.64053429 </i>
    <i name="e_wo_entrp">   -557.64053429 </i>
    <i name="e_0_energy">   -557.64053429 </i>
   </energy>
  </scstep>
  <scstep>
   <time name="dav">   73.29   73.47</time>
   <time name="total">   77.41   77.60</time>
   <energy>
    <i name="e_fr_energy">   -557.64055853 </i>
    <i name="e_wo_entrp">   -557.64055853 </i>
    <i name="e_0_energy">   -557.64055853 </i>
   </energy>
  </scstep>
  <scstep>
   <time name="dav">   72.48   72.66</time>
   <time name="total">   76.60   76.79</time>
   <energy>
    <i name="e_fr_energy">   -557.64037134 </i>
    <i name="e_wo_entrp">   -557.64037134 </i>
    <i name="e_0_energy">   -557.64037134 </i>
   </energy>
  </scstep>
  <scstep>
   <time name="dav">   77.75   77.94</time>
   <time name="total">   81.88   82.08</time>
   <energy>
    <i name="e_fr_energy">   -557.64040642 </i>
    <i name="e_wo_entrp">   -557.64040642 </i>
    <i name="e_0_energy">   -557.64040642 </i>
   </energy>
  </scstep>
  <scstep>
   <time name="dav">   74.37   74.56</time>
   <time name="total">   78.51   78.72</time>
   <energy>
    <i name="e_fr_energy">   -557.64049570 </i>
    <i name="e_wo_entrp">   -557.64049570 </i>
    <i name="e_0_energy">   -557.64049570 </i>
   </energy>
  </scstep>
  <scstep>
   <time name="dav">   72.00   72.17</time>
   <time name="total">   76.12   76.31</time>
   <energy>
    <i name="e_fr_energy">   -557.64058002 </i>
    <i name="e_wo_entrp">   -557.64058002 </i>
    <i name="e_0_energy">   -557.64058002 </i>
   </energy>
  </scstep>
  <scstep>
   <time name="dav">   70.93   71.10</time>
   <time name="total">   75.04   75.23</time>
   <energy>
    <i name="e_fr_energy">   -557.64071177 </i>
    <i name="e_wo_entrp">   -557.64071177 </i>
    <i name="e_0_energy">   -557.64071177 </i>
   </energy>
  </scstep>
  <scstep>
   <time name="dav">   74.34   74.52</time>
   <time name="total">   78.44   78.63</time>
   <energy>
    <i name="e_fr_energy">   -557.64078978 </i>
    <i name="e_wo_entrp">   -557.64078978 </i>
    <i name="e_0_energy">   -557.64078978 </i>
   </energy>
  </scstep>
  <scstep>
   <time name="dav">   70.45   70.62</time>
   <time name="total">   74.55   74.73</time>
   <energy>
    <i name="e_fr_energy">   -557.64089735 </i>
    <i name="e_wo_entrp">   -557.64089735 </i>
    <i name="e_0_energy">   -557.64089735 </i>
   </energy>
  </scstep>
  <scstep>
   <time name="dav">   65.22   65.37</time>
   <time name="total">   69.31   69.49</time>
   <energy>
    <i name="e_fr_energy">   -557.64092719 </i>
    <i name="e_wo_entrp">   -557.64092719 </i>
    <i name="e_0_energy">   -557.64092719 </i>
   </energy>
  </scstep>
  <scstep>
   <time name="dav">   63.00   63.16</time>
   <time name="total">   67.13   67.32</time>
   <energy>
    <i name="e_fr_energy">   -557.64095858 </i>
    <i name="e_wo_entrp">   -557.64095858 </i>
    <i name="e_0_energy">   -557.64095858 </i>
   </energy>
  </scstep>
  <scstep>
   <time name="dav">   53.20   53.33</time>
   <time name="total">   57.29   57.43</time>
   <energy>
    <i name="e_fr_energy">   -557.64096901 </i>
    <i name="e_wo_entrp">   -557.64096901 </i>
    <i name="e_0_energy">   -557.64096901 </i>
   </energy>
  </scstep>
  <scstep>
   <time name="dav">   54.72   54.85</time>
   <time name="total">   58.80   58.95</time>
   <energy>
    <i name="e_fr_energy">   -557.64097879 </i>
    <i name="e_wo_entrp">   -557.64097879 </i>
    <i name="e_0_energy">   -557.64097879 </i>
   </energy>
  </scstep>
  <scstep>
   <time name="dav">   53.77   53.90</time>
   <time name="total">   57.87   58.01</time>
   <energy>
    <i name="e_fr_energy">   -557.64098247 </i>
    <i name="e_wo_entrp">   -557.64098247 </i>
    <i name="e_0_energy">   -557.64098247 </i>
   </energy>
  </scstep>
  <scstep>
   <time name="dav">   53.38   53.50</time>
   <time name="total">   57.46   57.60</time>
   <energy>
    <i name="e_fr_energy">   -557.64098462 </i>
    <i name="e_wo_entrp">   -557.64098462 </i>
    <i name="e_0_energy">   -557.64098462 </i>
   </energy>
  </scstep>
  <scstep>
   <time name="dav">   51.30   51.42</time>
   <time name="total">   55.42   55.56</time>
   <energy>
    <i name="e_fr_energy">   -557.64098571 </i>
    <i name="e_wo_entrp">   -557.64098571 </i>
    <i name="e_0_energy">   -557.64098571 </i>
   </energy>
  </scstep>
  <scstep>
   <time name="dav">   49.52   49.64</time>
   <time name="total">   53.62   53.76</time>
   <energy>
    <i name="e_fr_energy">   -557.64098620 </i>
    <i name="e_wo_entrp">   -557.64098620 </i>
    <i name="e_0_energy">   -557.64098620 </i>
   </energy>
  </scstep>
  <scstep>
   <time name="dav">   48.89   49.00</time>
   <time name="total">   52.98   53.11</time>
   <energy>
    <i name="e_fr_energy">   -557.64098648 </i>
    <i name="e_wo_entrp">   -557.64098648 </i>
    <i name="e_0_energy">   -557.64098648 </i>
   </energy>
  </scstep>
  <scstep>
   <time name="dav">   49.33   49.45</time>
   <time name="total">   53.47   53.60</time>
   <energy>
    <i name="e_fr_energy">   -557.64098659 </i>
    <i name="e_wo_entrp">   -557.64098659 </i>
    <i name="e_0_energy">   -557.64098659 </i>
   </energy>
  </scstep>
  <scstep>
   <time name="dav">   48.21   48.33</time>
   <time name="total">   48.57   48.69</time>
   <energy>
    <i name="alphaZ">     77.56467751 </i>
    <i name="ewald"> 215566.62589203 </i>
    <i name="hartreedc">-223085.77915034 </i>
    <i name="XCdc">    858.63024042 </i>
    <i name="pawpsdc">  26718.76402902 </i>
    <i name="pawaedc"> -26761.19781554 </i>
    <i name="eentropy">      0.00000000 </i>
    <i name="bandstr">  -3055.84590307 </i>
    <i name="atom">   9123.59704331 </i>
    <i name="e_fr_energy">   -557.64098665 </i>
    <i name="e_wo_entrp">   -557.64098665 </i>
    <i name="e_0_energy">   -557.64098665 </i>
   </energy>
  </scstep>
  <structure>
   <crystal>
    <varray name="basis" >
     <v>       9.70345522      -0.00626727      -0.00000241 </v>
     <v>       4.85284277       8.39973109       0.00000044 </v>
     <v>      -0.00001221       0.00000965      49.92933469 </v>
    </varray>
    <i name="volume">   4071.07960014 </i>
    <varray name="rec_basis" >
     <v>       0.10301763      -0.05951719       0.00000004 </v>
     <v>       0.00007686       0.11900702      -0.00000002 </v>
     <v>       0.00000000      -0.00000000       0.02002831 </v>
    </varray>
   </crystal>
   <varray name="positions" >
    <v>       0.00027145       0.00020888       0.45747525 </v>
    <v>       0.08349157       0.08349395       0.45625839 </v>
    <v>       0.00025788       0.00020082       0.38252822 </v>
    <v>       0.08350577       0.08350731       0.38374921 </v>
    <v>       0.99854171       0.25056489       0.45535350 </v>
    <v>       0.08343188       0.33281320       0.45624893 </v>
    <v>       0.99852567       0.25057969       0.38465349 </v>
    <v>       0.08344430       0.33278886       0.38375812 </v>
    <v>       0.00032670       0.49920911       0.45746117 </v>
    <v>       0.08402538       0.58258117       0.45589176 </v>
    <v>       0.00031393       0.49924494       0.38254123 </v>
    <v>       0.08402507       0.58256646       0.38410662 </v>
    <v>       1.00008144       0.74981294       0.45718748 </v>
    <v>       0.08405756       0.83312232       0.45590175 </v>
    <v>       1.00007999       0.74982925       0.38280942 </v>
    <v>       0.08405494       0.83313502       0.38409759 </v>
    <v>       0.25058496       0.99853511       0.45533580 </v>
    <v>       0.33282570       0.08343061       0.45623099 </v>
    <v>       0.25059802       0.99852618       0.38467060 </v>
    <v>       0.33278916       0.08344925       0.38377572 </v>
    <v>       0.25061399       0.25057179       0.45532944 </v>
    <v>       0.33361182       0.33356018       0.44970278 </v>
    <v>       0.25062812       0.25057954       0.38467698 </v>
    <v>       0.33359963       0.33355381       0.39029546 </v>
    <v>       0.24533546       0.50163315       0.44803053 </v>
    <v>       0.29223248       0.60374353       0.43437103 </v>
    <v>       0.24534803       0.50164310       0.39196734 </v>
    <v>       0.29223644       0.60374377       0.40562448 </v>
    <v>       0.24537384       0.75269247       0.44803657 </v>
    <v>       0.33364300       0.83255126       0.44971088 </v>
    <v>       0.24538792       0.75267821       0.39196181 </v>
    <v>       0.33363576       0.83257115       0.39028789 </v>
    <v>       0.49924368       0.00027640       0.45743917 </v>
    <v>       0.58263103       0.08392792       0.45587172 </v>
    <v>       0.49928275       0.00026680       0.38256231 </v>
    <v>       0.58261570       0.08392874       0.38412610 </v>
    <v>       0.50169869       0.24519237       0.44802352 </v>
    <v>       0.60381641       0.29208787       0.43437071 </v>
    <v>       0.50171128       0.24520288       0.39197454 </v>
    <v>       0.60381342       0.29209118       0.40562543 </v>
    <v>       0.60383955       0.60384113       0.43436464 </v>
    <v>       0.60384325       0.60384328       0.40563141 </v>
    <v>       0.50170269       0.75283413       0.44802670 </v>
    <v>       0.58264217       0.83314790       0.45586859 </v>
    <v>       0.50171558       0.75282358       0.39197164 </v>
    <v>       0.58263381       0.83316116       0.38412966 </v>
    <v>       0.74989257       0.99997615       0.45717314 </v>
    <v>       0.83316421       0.08399294       0.45589914 </v>
    <v>       0.74989818       0.99998754       0.38282321 </v>
    <v>       0.83317836       0.08398755       0.38409991 </v>
    <v>       0.75272276       0.24530189       0.44804634 </v>
    <v>       0.83249784       0.33364103       0.44973011 </v>
    <v>       0.75270676       0.24531944       0.39195276 </v>
    <v>       0.83252173       0.33363227       0.39026921 </v>
    <v>       0.75278711       0.50168000       0.44804331 </v>
    <v>       0.83314095       0.58261764       0.45588592 </v>
    <v>       0.75277100       0.50169557       0.39195579 </v>
    <v>       0.83316010       0.58260841       0.38411278 </v>
    <v>       0.74997166       0.74991427       0.45716486 </v>
    <v>       0.83324519       0.83318388       0.45840089 </v>
    <v>       0.74997679       0.74992909       0.38283093 </v>
    <v>       0.83324866       0.83317514       0.38159508 </v>
   </varray>
  </structure>
  <varray name="forces" >
   <v>       0.19312985       0.12551578       0.10401403 </v>
   <v>      -0.09540837      -0.06992446       0.02424428 </v>
   <v>       0.21740227       0.13675888      -0.10376000 </v>
   <v>      -0.11451062      -0.07939129      -0.02489200 </v>
   <v>       0.01602976       0.01568316       0.09033230 </v>
   <v>       0.03162791       0.06000099       0.02539158 </v>
   <v>       0.03063127       0.00401258      -0.09339820 </v>
   <v>       0.03456674       0.08525940      -0.02621395 </v>
   <v>      -0.05023404      -0.19123197       0.10748858 </v>
   <v>       0.17124367       0.16303529       0.12397410 </v>
   <v>      -0.05181790      -0.22386807      -0.10747974 </v>
   <v>       0.18440600       0.18026508      -0.12313372 </v>
   <v>      -0.03122269       0.02393840       0.04502412 </v>
   <v>      -0.07494906      -0.22696108       0.12317612 </v>
   <v>      -0.03194331       0.01193608      -0.04447227 </v>
   <v>      -0.07532123      -0.23582407      -0.12269625 </v>
   <v>       0.01004899       0.02947271       0.09743640 </v>
   <v>       0.07695637      -0.02706369       0.02971973 </v>
   <v>       0.00416813       0.04317546      -0.09988174 </v>
   <v>       0.10871767      -0.04123214      -0.03084269 </v>
   <v>      -0.04763745      -0.00956672       0.09950146 </v>
   <v>       0.20554403       0.10616612      -0.12335112 </v>
   <v>      -0.06702374      -0.01567496      -0.10275616 </v>
   <v>       0.22710251       0.11523569       0.12967238 </v>
   <v>       0.21246776      -0.13790376      -0.08457717 </v>
   <v>       0.27326985      -0.15976444      -0.38627810 </v>
   <v>       0.20180901      -0.14612605       0.07965834 </v>
   <v>       0.27552823      -0.16053652       0.39128160 </v>
   <v>       0.22982841      -0.09304282      -0.08130034 </v>
   <v>      -0.00895384      -0.23601197      -0.12562949 </v>
   <v>       0.23093981      -0.08201154       0.07696985 </v>
   <v>      -0.00703474      -0.25478395       0.13061573 </v>
   <v>      -0.20209910       0.07428137       0.11177094 </v>
   <v>       0.24284864       0.05174119       0.13329189 </v>
   <v>      -0.23728062       0.08775975      -0.11135634 </v>
   <v>       0.26363768       0.05571860      -0.13250800 </v>
   <v>      -0.01904078       0.28539289      -0.08825176 </v>
   <v>       0.00663692       0.32627671      -0.39351607 </v>
   <v>      -0.03408037       0.28315194       0.08357675 </v>
   <v>       0.00925724       0.32862056       0.39835947 </v>
   <v>      -0.28019583      -0.17181039      -0.38710797 </v>
   <v>      -0.28241049      -0.17181269       0.39197866 </v>
   <v>      -0.25032072      -0.12746372      -0.09057290 </v>
   <v>       0.09963517      -0.19802109       0.13858390 </v>
   <v>      -0.25466351      -0.11725497       0.08709865 </v>
   <v>       0.10707998      -0.20756777      -0.13885918 </v>
   <v>      -0.00556845      -0.01651160       0.04678804 </v>
   <v>      -0.22269449       0.02976253       0.12837108 </v>
   <v>      -0.01277265      -0.02122780      -0.04691943 </v>
   <v>      -0.23235503       0.03824665      -0.12693411 </v>
   <v>       0.03119069       0.25762023      -0.09090306 </v>
   <v>      -0.18945855       0.08974729      -0.12300711 </v>
   <v>       0.04121697       0.25124331       0.08594527 </v>
   <v>      -0.20835077       0.10251917       0.12906894 </v>
   <v>      -0.22318555      -0.13582612      -0.09624588 </v>
   <v>      -0.10351337       0.16146429       0.13435051 </v>
   <v>      -0.21278567      -0.14562006       0.09115109 </v>
   <v>      -0.11431521       0.17591078      -0.13387355 </v>
   <v>      -0.08004835      -0.03201230       0.03996632 </v>
   <v>       0.08377288       0.03311329       0.09378347 </v>
   <v>      -0.08949545      -0.04251570      -0.03846478 </v>
   <v>       0.08999750       0.04553754      -0.09340249 </v>
  </varray>
  <varray name="stress" >
   <v>      14.85639308       0.36734579       0.00024918 </v>
   <v>       0.36734587      14.97248832       0.00064231 </v>
   <v>       0.00024917       0.00064231       0.62106788 </v>
  </varray>
  <energy>
   <i name="e_fr_energy">   -564.79190337 </i>
   <i name="e_wo_entrp">   -564.79190337 </i>
   <i name="e_0_energy">      0.00000000 </i>
  </energy>
  <time name="totalsc"> 1755.30 1759.73</time>
 </calculation>
 <calculation>
  <scstep>
   <time name="dav">   67.81   68.05</time>
   <time name="total">   71.87   72.13</time>
   <energy>
    <i name="alphaZ">     76.00695304 </i>
    <i name="ewald"> 211260.82332980 </i>
    <i name="hartreedc">-218791.28882873 </i>
    <i name="XCdc">    853.00504329 </i>
    <i name="pawpsdc">  26718.76353084 </i>
    <i name="pawaedc"> -26761.19731769 </i>
    <i name="eentropy">      0.00000000 </i>
    <i name="bandstr">  -3037.94506200 </i>
    <i name="atom">   9123.59704331 </i>
    <i name="e_fr_energy">   -558.23530812 </i>
    <i name="e_wo_entrp">   -558.23530812 </i>
    <i name="e_0_energy">   -558.23530812 </i>
   </energy>
  </scstep>
  <scstep>
   <time name="dav">   73.27   73.45</time>
   <time name="total">   77.37   77.59</time>
   <energy>
    <i name="e_fr_energy">   -558.19562596 </i>
    <i name="e_wo_entrp">   -558.19562596 </i>
    <i name="e_0_energy">   -558.19562596 </i>
   </energy>
  </scstep>
  <scstep>
   <time name="dav">   74.19   74.37</time>
   <time name="total">   78.27   78.47</time>
   <energy>
    <i name="e_fr_energy">   -558.16981053 </i>
    <i name="e_wo_entrp">   -558.16981053 </i>
    <i name="e_0_energy">   -558.16981053 </i>
   </energy>
  </scstep>
  <scstep>
   <time name="dav">   76.92   77.11</time>
   <time name="total">   81.05   81.29</time>
   <energy>
    <i name="e_fr_energy">   -558.16794945 </i>
    <i name="e_wo_entrp">   -558.16794945 </i>
    <i name="e_0_energy">   -558.16794945 </i>
   </energy>
  </scstep>
  <scstep>
   <time name="dav">   72.01   72.21</time>
   <time name="total">   76.11   76.34</time>
   <energy>
    <i name="e_fr_energy">   -558.16817451 </i>
    <i name="e_wo_entrp">   -558.16817451 </i>
    <i name="e_0_energy">   -558.16817451 </i>
   </energy>
  </scstep>
  <scstep>
   <time name="dav">   71.43   71.61</time>
   <time name="total">   75.54   75.75</time>
   <energy>
    <i name="e_fr_energy">   -558.16788782 </i>
    <i name="e_wo_entrp">   -558.16788782 </i>
    <i name="e_0_energy">   -558.16788782 </i>
   </energy>
  </scstep>
  <scstep>
   <time name="dav">   71.93   72.10</time>
   <time name="total">   75.99   76.18</time>
   <energy>
    <i name="e_fr_energy">   -558.16805668 </i>
    <i name="e_wo_entrp">   -558.16805668 </i>
    <i name="e_0_energy">   -558.16805668 </i>
   </energy>
  </scstep>
  <scstep>
   <time name="dav">   77.55   77.74</time>
   <time name="total">   81.63   81.84</time>
   <energy>
    <i name="e_fr_energy">   -558.16815921 </i>
    <i name="e_wo_entrp">   -558.16815921 </i>
    <i name="e_0_energy">   -558.16815921 </i>
   </energy>
  </scstep>
  <scstep>
   <time name="dav">   75.09   75.28</time>
   <time name="total">   79.18   79.40</time>
   <energy>
    <i name="e_fr_energy">   -558.16832175 </i>
    <i name="e_wo_entrp">   -558.16832175 </i>
    <i name="e_0_energy">   -558.16832175 </i>
   </energy>
  </scstep>
  <scstep>
   <time name="dav">   75.89   76.07</time>
   <time name="total">   80.01   80.24</time>
   <energy>
    <i name="e_fr_energy">   -558.16841552 </i>
    <i name="e_wo_entrp">   -558.16841552 </i>
    <i name="e_0_energy">   -558.16841552 </i>
   </energy>
  </scstep>
  <scstep>
   <time name="dav">   72.32   72.49</time>
   <time name="total">   76.41   76.60</time>
   <energy>
    <i name="e_fr_energy">   -558.16853963 </i>
    <i name="e_wo_entrp">   -558.16853963 </i>
    <i name="e_0_energy">   -558.16853963 </i>
   </energy>
  </scstep>
  <scstep>
   <time name="dav">   69.99   70.15</time>
   <time name="total">   74.08   74.27</time>
   <energy>
    <i name="e_fr_energy">   -558.16859355 </i>
    <i name="e_wo_entrp">   -558.16859355 </i>
    <i name="e_0_energy">   -558.16859355 </i>
   </energy>
  </scstep>
  <scstep>
   <time name="dav">   66.73   66.89</time>
   <time name="total">   70.85   71.03</time>
   <energy>
    <i name="e_fr_energy">   -558.16865282 </i>
    <i name="e_wo_entrp">   -558.16865282 </i>
    <i name="e_0_energy">   -558.16865282 </i>
   </energy>
  </scstep>
  <scstep>
   <time name="dav">   68.31   68.49</time>
   <time name="total">   72.39   72.58</time>
   <energy>
    <i name="e_fr_energy">   -558.16866245 </i>
    <i name="e_wo_entrp">   -558.16866245 </i>
    <i name="e_0_energy">   -558.16866245 </i>
   </energy>
  </scstep>
  <scstep>
   <time name="dav">   62.70   62.85</time>
   <time name="total">   66.76   66.98</time>
   <energy>
    <i name="e_fr_energy">   -558.16867074 </i>
    <i name="e_wo_entrp">   -558.16867074 </i>
    <i name="e_0_energy">   -558.16867074 </i>
   </energy>
  </scstep>
  <scstep>
   <time name="dav">   53.13   53.26</time>
   <time name="total">   57.22   57.36</time>
   <energy>
    <i name="e_fr_energy">   -558.16867370 </i>
    <i name="e_wo_entrp">   -558.16867370 </i>
    <i name="e_0_energy">   -558.16867370 </i>
   </energy>
  </scstep>
  <scstep>
   <time name="dav">   51.59   51.71</time>
   <time name="total">   55.64   55.78</time>
   <energy>
    <i name="e_fr_energy">   -558.16867514 </i>
    <i name="e_wo_entrp">   -558.16867514 </i>
    <i name="e_0_energy">   -558.16867514 </i>
   </energy>
  </scstep>
  <scstep>
   <time name="dav">   50.02   50.14</time>
   <time name="total">   54.10   54.25</time>
   <energy>
    <i name="e_fr_energy">   -558.16867578 </i>
    <i name="e_wo_entrp">   -558.16867578 </i>
    <i name="e_0_energy">   -558.16867578 </i>
   </energy>
  </scstep>
  <scstep>
   <time name="dav">   49.46   49.58</time>
   <time name="total">   53.54   53.67</time>
   <energy>
    <i name="e_fr_energy">   -558.16867613 </i>
    <i name="e_wo_entrp">   -558.16867613 </i>
    <i name="e_0_energy">   -558.16867613 </i>
   </energy>
  </scstep>
  <scstep>
   <time name="dav">   48.77   48.88</time>
   <time name="total">   52.85   52.98</time>
   <energy>
    <i name="e_fr_energy">   -558.16867635 </i>
    <i name="e_wo_entrp">   -558.16867635 </i>
    <i name="e_0_energy">   -558.16867635 </i>
   </energy>
  </scstep>
  <scstep>
   <time name="dav">   50.01   50.13</time>
   <time name="total">   54.09   54.22</time>
   <energy>
    <i name="e_fr_energy">   -558.16867649 </i>
    <i name="e_wo_entrp">   -558.16867649 </i>
    <i name="e_0_energy">   -558.16867649 </i>
   </energy>
  </scstep>
  <scstep>
   <time name="dav">   47.47   47.58</time>
   <time name="total">   47.83   47.95</time>
   <energy>
    <i name="alphaZ">     76.00695304 </i>
    <i name="ewald"> 211260.82332980 </i>
    <i name="hartreedc">-218777.89506823 </i>
    <i name="XCdc">    853.33894473 </i>
    <i name="pawpsdc">  25571.63935575 </i>
    <i name="pawaedc"> -25613.63702340 </i>
    <i name="eentropy">      0.00000000 </i>
    <i name="bandstr">  -3052.04221158 </i>
    <i name="atom">   9123.59704331 </i>
    <i name="e_fr_energy">   -558.16867657 </i>
    <i name="e_wo_entrp">   -558.16867657 </i>
    <i name="e_0_energy">   -558.16867657 </i>
   </energy>
  </scstep>
  <structure>
   <crystal>
    <varray name="basis" >
     <v>       9.79996895      -0.00394362      -0.00000079 </v>
     <v>       4.90317734       8.48512529       0.00000486 </v>
     <v>      -0.00000400       0.00003121      49.95009583 </v>
    </varray>
    <i name="volume">   4154.51433920 </i>
    <varray name="rec_basis" >
     <v>       0.10201742      -0.05895134       0.00000005 </v>
     <v>       0.00004741       0.11782590      -0.00000007 </v>
     <v>       0.00000000      -0.00000001       0.02001998 </v>
    </varray>
   </crystal>
   <varray name="positions" >
    <v>       0.00047444       0.00045314       0.45750928 </v>
    <v>       0.08339899       0.08335789       0.45626632 </v>
    <v>       0.00049078       0.00046697       0.38249428 </v>
    <v>       0.08339025       0.08335282       0.38374107 </v>
    <v>       0.99855344       0.25059540       0.45538306 </v>
    <v>       0.08342677       0.33292989       0.45625724 </v>
    <v>       0.99857332       0.25058753       0.38462293 </v>
    <v>       0.08341958       0.33295465       0.38374955 </v>
    <v>       0.00042809       0.49883727       0.45749633 </v>
    <v>       0.08415505       0.58289835       0.45593232 </v>
    <v>       0.00044439       0.49880965       0.38250606 </v>
    <v>       0.08416014       0.58291714       0.38406634 </v>
    <v>       1.00000562       0.74985944       0.45720221 </v>
    <v>       0.08415210       0.83268099       0.45594206 </v>
    <v>       1.00001463       0.74985242       0.38279487 </v>
    <v>       0.08415747       0.83267646       0.38405744 </v>
    <v>       0.25057321       0.99859242       0.45536768 </v>
    <v>       0.33298152       0.08337809       0.45624071 </v>
    <v>       0.25056306       0.99861012       0.38463793 </v>
    <v>       0.33301221       0.08336922       0.38376563 </v>
    <v>       0.25054312       0.25055313       0.45536200 </v>
    <v>       0.33385451       0.33376684       0.44966242 </v>
    <v>       0.25053056       0.25054898       0.38464336 </v>
    <v>       0.33386978       0.33377813       0.39033788 </v>
    <v>       0.24582710       0.50136531       0.44800286 </v>
    <v>       0.29284771       0.60343327       0.43424465 </v>
    <v>       0.24582973       0.50135927       0.39199340 </v>
    <v>       0.29285622       0.60343201       0.40575250 </v>
    <v>       0.24585109       0.75251187       0.44800997 </v>
    <v>       0.33385740       0.83209241       0.44966978 </v>
    <v>       0.24585631       0.75251906       0.39198699 </v>
    <v>       0.33387165       0.83207582       0.39033063 </v>
    <v>       0.49883134       0.00042055       0.45747574 </v>
    <v>       0.58298941       0.08402882       0.45591533 </v>
    <v>       0.49879810       0.00043712       0.38252588 </v>
    <v>       0.58300520       0.08403740       0.38408274 </v>
    <v>       0.50138917       0.24574718       0.44799464 </v>
    <v>       0.60351035       0.29272220       0.43424196 </v>
    <v>       0.50137862       0.24575332       0.39200189 </v>
[...]
       <r>  -12.8928    1.0000 </r>
       <r>  -12.8832    1.0000 </r>
       <r>  -12.6178    1.0000 </r>
       <r>  -12.6013    1.0000 </r>
       <r>  -12.5857    1.0000 </r>
       <r>  -12.4052    1.0000 </r>
       <r>  -12.2975    1.0000 </r>
       <r>  -12.0778    1.0000 </r>
       <r>  -11.9033    1.0000 </r>
       <r>  -11.6755    1.0000 </r>
       <r>  -11.3983    1.0000 </r>
       <r>  -11.2946    1.0000 </r>
       <r>  -11.2009    1.0000 </r>
       <r>  -10.8984    1.0000 </r>
       <r>  -10.8555    1.0000 </r>
       <r>  -10.8366    1.0000 </r>
       <r>  -10.8205    1.0000 </r>
       <r>  -10.6696    1.0000 </r>
       <r>  -10.4640    1.0000 </r>
       <r>  -10.3585    1.0000 </r>
       <r>  -10.3420    1.0000 </r>
       <r>  -10.2423    1.0000 </r>
       <r>  -10.1854    1.0000 </r>
       <r>  -10.1714    1.0000 </r>
       <r>  -10.0660    1.0000 </r>
       <r>  -10.0524    1.0000 </r>
       <r>   -9.8743    1.0000 </r>
       <r>   -9.8533    1.0000 </r>
       <r>   -9.6786    1.0000 </r>
       <r>   -9.6747    1.0000 </r>
       <r>   -9.5978    1.0000 </r>
       <r>   -9.5894    1.0000 </r>
       <r>   -9.4938    1.0000 </r>
       <r>   -9.4478    1.0000 </r>
       <r>   -9.4407    1.0000 </r>
       <r>   -9.2449    1.0000 </r>
       <r>   -9.2134    1.0000 </r>
       <r>   -9.1528    1.0000 </r>
       <r>   -8.9649    1.0000 </r>
       <r>   -8.7784    1.0000 </r>
       <r>   -8.7665    1.0000 </r>
       <r>   -8.7502    1.0000 </r>
       <r>   -8.7478    1.0000 </r>
       <r>   -8.6153    1.0000 </r>
       <r>   -8.3507    1.0000 </r>
       <r>   -8.3449    1.0000 </r>
       <r>   -8.2632    1.0000 </r>
       <r>   -8.1528    1.0000 </r>
       <r>   -8.0889    1.0000 </r>
       <r>   -7.8856    1.0000 </r>
       <r>   -7.6129    1.0000 </r>
       <r>   -7.5966    1.0000 </r>
       <r>   -7.5144    1.0000 </r>
       <r>   -7.2643    1.0000 </r>
       <r>   -7.2487    1.0000 </r>
       <r>   -7.1857    1.0000 </r>
       <r>   -7.1212    1.0000 </r>
       <r>   -7.0619    1.0000 </r>
       <r>   -6.9298    1.0000 </r>
       <r>   -6.8193    1.0000 </r>
       <r>   -6.5929    1.0000 </r>
       <r>   -6.5729    1.0000 </r>
       <r>   -6.4283    1.0000 </r>
       <r>   -6.0807    1.0000 </r>
       <r>   -6.0532    1.0000 </r>
       <r>   -5.8173    1.0000 </r>
       <r>   -5.8098    1.0000 </r>
       <r>   -5.5239    1.0000 </r>
       <r>   -5.3762    1.0000 </r>
       <r>   -5.2451    1.0000 </r>
       <r>   -5.1625    1.0000 </r>
       <r>   -4.7718    1.0000 </r>
       <r>   -4.6902    1.0000 </r>
       <r>   -4.3182    1.0000 </r>
       <r>   -3.4305    1.0000 </r>
       <r>   -3.3434    1.0000 </r>
       <r>   -3.1217    0.0000 </r>
       <r>   -2.9893    0.0000 </r>
       <r>   -2.6510    0.0000 </r>
       <r>   -2.0622    0.0000 </r>
       <r>   -1.5707    0.0000 </r>
       <r>   -1.4737    0.0000 </r>
       <r>   -1.3566    0.0000 </r>
       <r>   -1.3394    0.0000 </r>
       <r>   -1.1406    0.0000 </r>
       <r>   -1.0199    0.0000 </r>
       <r>   -0.6878    0.0000 </r>
       <r>   -0.3967    0.0000 </r>
       <r>   -0.3555    0.0000 </r>
       <r>   -0.3470    0.0000 </r>
       <r>    0.1505    0.0000 </r>
       <r>    0.2394    0.0000 </r>
       <r>    0.6214    0.0000 </r>
       <r>    0.6755    0.0000 </r>
       <r>    0.8094    0.0000 </r>
       <r>    1.0313    0.0000 </r>
       <r>    1.0592    0.0000 </r>
       <r>    1.0842    0.0000 </r>
       <r>    1.1530    0.0000 </r>
       <r>    1.3759    0.0000 </r>
       <r>    1.4352    0.0000 </r>
       <r>    1.5454    0.0000 </r>
       <r>    1.6176    0.0000 </r>
       <r>    1.6290    0.0000 </r>
       <r>    1.7246    0.0000 </r>
       <r>    1.9040    0.0000 </r>
       <r>    1.9336    0.0000 </r>
       <r>    1.9634    0.0000 </r>
      </set>
      <set comment="kpoint 12">
       <r>  -22.5402    1.0000 </r>
       <r>  -22.4569    1.0000 </r>
       <r>  -22.2502    1.0000 </r>
       <r>  -22.2248    1.0000 </r>
       <r>  -22.0951    1.0000 </r>
       <r>  -21.6142    1.0000 </r>
       <r>  -21.4644    1.0000 </r>
       <r>  -20.8800    1.0000 </r>
       <r>  -20.8320    1.0000 </r>
       <r>  -20.6419    1.0000 </r>
       <r>  -20.3741    1.0000 </r>
       <r>  -20.2992    1.0000 </r>
       <r>  -20.1192    1.0000 </r>
       <r>  -19.7797    1.0000 </r>
       <r>  -19.7186    1.0000 </r>
       <r>  -19.5689    1.0000 </r>
       <r>  -19.4636    1.0000 </r>
       <r>  -19.3716    1.0000 </r>
       <r>  -19.0306    1.0000 </r>
       <r>  -19.0014    1.0000 </r>
       <r>  -18.7963    1.0000 </r>
       <r>  -18.7566    1.0000 </r>
       <r>  -18.6742    1.0000 </r>
       <r>  -17.8569    1.0000 </r>
       <r>  -17.6549    1.0000 </r>
       <r>  -17.5174    1.0000 </r>
       <r>  -17.2020    1.0000 </r>
       <r>  -17.0332    1.0000 </r>
       <r>  -16.6116    1.0000 </r>
       <r>  -16.5612    1.0000 </r>
       <r>  -16.3549    1.0000 </r>
       <r>  -16.1359    1.0000 </r>
       <r>  -15.9870    1.0000 </r>
       <r>  -15.8241    1.0000 </r>
       <r>  -15.7976    1.0000 </r>
       <r>  -15.5501    1.0000 </r>
       <r>  -15.4941    1.0000 </r>
       <r>  -15.3324    1.0000 </r>
       <r>  -15.1557    1.0000 </r>
       <r>  -14.5635    1.0000 </r>
       <r>  -14.5281    1.0000 </r>
       <r>  -14.3865    1.0000 </r>
       <r>  -14.3214    1.0000 </r>
       <r>  -14.2000    1.0000 </r>
       <r>  -13.7815    1.0000 </r>
       <r>  -13.7000    1.0000 </r>
       <r>  -13.5615    1.0000 </r>
       <r>  -13.4833    1.0000 </r>
       <r>  -13.4423    1.0000 </r>
       <r>  -13.1563    1.0000 </r>
       <r>  -12.9226    1.0000 </r>
       <r>  -12.8469    1.0000 </r>
       <r>  -12.5116    1.0000 </r>
       <r>  -12.3240    1.0000 </r>
       <r>  -11.8474    1.0000 </r>
       <r>  -11.7175    1.0000 </r>
       <r>  -11.6829    1.0000 </r>
       <r>  -11.4206    1.0000 </r>
       <r>  -11.4007    1.0000 </r>
       <r>  -11.1791    1.0000 </r>
       <r>  -11.1422    1.0000 </r>
       <r>  -10.9823    1.0000 </r>
       <r>  -10.8612    1.0000 </r>
       <r>  -10.8611    1.0000 </r>
       <r>  -10.7111    1.0000 </r>
       <r>  -10.6715    1.0000 </r>
       <r>  -10.5668    1.0000 </r>
       <r>  -10.4123    1.0000 </r>
       <r>  -10.3351    1.0000 </r>
       <r>  -10.1629    1.0000 </r>
       <r>  -10.0420    1.0000 </r>
       <r>   -9.9983    1.0000 </r>
       <r>   -9.9549    1.0000 </r>
       <r>   -9.9252    1.0000 </r>
       <r>   -9.9081    1.0000 </r>
       <r>   -9.8668    1.0000 </r>
       <r>   -9.8310    1.0000 </r>
       <r>   -9.7438    1.0000 </r>
       <r>   -9.6901    1.0000 </r>
       <r>   -9.6249    1.0000 </r>
       <r>   -9.5434    1.0000 </r>
       <r>   -9.5098    1.0000 </r>
       <r>   -9.3572    1.0000 </r>
       <r>   -9.3375    1.0000 </r>
       <r>   -9.2257    1.0000 </r>
       <r>   -9.1635    1.0000 </r>
       <r>   -9.0417    1.0000 </r>
       <r>   -9.0299    1.0000 </r>
       <r>   -8.9194    1.0000 </r>
       <r>   -8.6406    1.0000 </r>
       <r>   -8.6335    1.0000 </r>
       <r>   -8.5048    1.0000 </r>
       <r>   -8.4351    1.0000 </r>
       <r>   -8.2607    1.0000 </r>
       <r>   -8.0777    1.0000 </r>
       <r>   -8.0434    1.0000 </r>
       <r>   -8.0155    1.0000 </r>
       <r>   -7.8221    1.0000 </r>
       <r>   -7.6187    1.0000 </r>
       <r>   -7.6052    1.0000 </r>
       <r>   -7.4073    1.0000 </r>
       <r>   -7.2686    1.0000 </r>
       <r>   -7.2114    1.0000 </r>
       <r>   -7.2059    1.0000 </r>
       <r>   -7.1209    1.0000 </r>
       <r>   -7.0702    1.0000 </r>
       <r>   -6.9166    1.0000 </r>
       <r>   -6.9128    1.0000 </r>
       <r>   -6.7351    1.0000 </r>
       <r>   -6.5866    1.0000 </r>
       <r>   -6.5684    1.0000 </r>
       <r>   -6.4336    1.0000 </r>
       <r>   -6.2398    1.0000 </r>
       <r>   -5.9450    1.0000 </r>
       <r>   -5.8205    1.0000 </r>
       <r>   -5.4216    1.0000 </r>
       <r>   -5.3994    1.0000 </r>
       <r>   -5.2900    1.0000 </r>
       <r>   -4.9686    1.0000 </r>
       <r>   -4.8612    1.0000 </r>
       <r>   -4.3200    1.0000 </r>
       <r>   -4.2821    1.0000 </r>
       <r>   -3.4213    1.0000 </r>
       <r>   -3.2704    1.0000 </r>
       <r>   -3.1228    0.0000 </r>
       <r>   -3.1003    0.0000 </r>
       <r>   -2.5125    0.0000 </r>
       <r>   -2.0174    0.0000 </r>
       <r>   -1.8782    0.0000 </r>
       <r>   -1.7542    0.0000 </r>
       <r>   -1.4676    0.0000 </r>
       <r>   -1.2690    0.0000 </r>
       <r>   -1.0843    0.0000 </r>
       <r>   -0.9007    0.0000 </r>
       <r>   -0.5792    0.0000 </r>
       <r>   -0.5595    0.0000 </r>
       <r>   -0.3885    0.0000 </r>
       <r>    0.1263    0.0000 </r>
       <r>    0.2593    0.0000 </r>
       <r>    0.4339    0.0000 </r>
       <r>    0.4399    0.0000 </r>
       <r>    0.8993    0.0000 </r>
       <r>    0.9083    0.0000 </r>
       <r>    0.9413    0.0000 </r>
       <r>    0.9599    0.0000 </r>
       <r>    1.1036    0.0000 </r>
       <r>    1.2331    0.0000 </r>
       <r>    1.2831    0.0000 </r>
       <r>    1.3588    0.0000 </r>
       <r>    1.4401    0.0000 </r>
       <r>    1.5170    0.0000 </r>
       <r>    1.6869    0.0000 </r>
       <r>    1.7961    0.0000 </r>
       <r>    1.7963    0.0000 </r>
       <r>    1.8764    0.0000 </r>
       <r>    1.8781    0.0000 </r>
      </set>
      <set comment="kpoint 13">
       <r>  -22.5400    1.0000 </r>
       <r>  -22.4570    1.0000 </r>
       <r>  -22.2501    1.0000 </r>
       <r>  -22.2249    1.0000 </r>
       <r>  -22.0953    1.0000 </r>
       <r>  -21.6142    1.0000 </r>
       <r>  -21.4644    1.0000 </r>
       <r>  -20.8799    1.0000 </r>
       <r>  -20.8320    1.0000 </r>
       <r>  -20.6419    1.0000 </r>
       <r>  -20.3741    1.0000 </r>
       <r>  -20.2992    1.0000 </r>
       <r>  -20.1192    1.0000 </r>
       <r>  -19.7796    1.0000 </r>
       <r>  -19.7187    1.0000 </r>
       <r>  -19.5689    1.0000 </r>
       <r>  -19.4634    1.0000 </r>
       <r>  -19.3718    1.0000 </r>
       <r>  -19.0306    1.0000 </r>
       <r>  -19.0012    1.0000 </r>
       <r>  -18.7963    1.0000 </r>
       <r>  -18.7567    1.0000 </r>
       <r>  -18.6745    1.0000 </r>
       <r>  -17.8569    1.0000 </r>
       <r>  -17.6549    1.0000 </r>
       <r>  -17.5175    1.0000 </r>
       <r>  -17.2023    1.0000 </r>
       <r>  -17.0329    1.0000 </r>
       <r>  -16.6113    1.0000 </r>
       <r>  -16.5610    1.0000 </r>
       <r>  -16.3546    1.0000 </r>
       <r>  -16.1360    1.0000 </r>
       <r>  -15.9871    1.0000 </r>
       <r>  -15.8238    1.0000 </r>
       <r>  -15.7976    1.0000 </r>
       <r>  -15.5503    1.0000 </r>
       <r>  -15.4942    1.0000 </r>
       <r>  -15.3324    1.0000 </r>
       <r>  -15.1560    1.0000 </r>
       <r>  -14.5634    1.0000 </r>
       <r>  -14.5279    1.0000 </r>
       <r>  -14.3863    1.0000 </r>
       <r>  -14.3216    1.0000 </r>
       <r>  -14.2001    1.0000 </r>
       <r>  -13.7814    1.0000 </r>
       <r>  -13.6999    1.0000 </r>
       <r>  -13.5613    1.0000 </r>
       <r>  -13.4833    1.0000 </r>
       <r>  -13.4422    1.0000 </r>
       <r>  -13.1563    1.0000 </r>
       <r>  -12.9225    1.0000 </r>
       <r>  -12.8471    1.0000 </r>
       <r>  -12.5115    1.0000 </r>
       <r>  -12.3239    1.0000 </r>
       <r>  -11.8476    1.0000 </r>
       <r>  -11.7176    1.0000 </r>
       <r>  -11.6831    1.0000 </r>
       <r>  -11.4207    1.0000 </r>
       <r>  -11.4009    1.0000 </r>
       <r>  -11.1793    1.0000 </r>
       <r>  -11.1423    1.0000 </r>
       <r>  -10.9822    1.0000 </r>
       <r>  -10.8614    1.0000 </r>
       <r>  -10.8612    1.0000 </r>
       <r>  -10.7109    1.0000 </r>
       <r>  -10.6715    1.0000 </r>
       <r>  -10.5665    1.0000 </r>
       <r>  -10.4119    1.0000 </r>
       <r>  -10.3350    1.0000 </r>
       <r>  -10.1625    1.0000 </r>
       <r>  -10.0423    1.0000 </r>
       <r>   -9.9982    1.0000 </r>
       <r>   -9.9553    1.0000 </r>
       <r>   -9.9252    1.0000 </r>
       <r>   -9.9080    1.0000 </r>
       <r>   -9.8670    1.0000 </r>
       <r>   -9.8309    1.0000 </r>
       <r>   -9.7437    1.0000 </r>
       <r>   -9.6900    1.0000 </r>
       <r>   -9.6246    1.0000 </r>
       <r>   -9.5432    1.0000 </r>
       <r>   -9.5099    1.0000 </r>
       <r>   -9.3574    1.0000 </r>
       <r>   -9.3375    1.0000 </r>
       <r>   -9.2255    1.0000 </r>
       <r>   -9.1638    1.0000 </r>
       <r>   -9.0414    1.0000 </r>
       <r>   -9.0299    1.0000 </r>
       <r>   -8.9194    1.0000 </r>
       <r>   -8.6404    1.0000 </r>
       <r>   -8.6335    1.0000 </r>
       <r>   -8.5046    1.0000 </r>
       <r>   -8.4355    1.0000 </r>
       <r>   -8.2610    1.0000 </r>
       <r>   -8.0780    1.0000 </r>
       <r>   -8.0434    1.0000 </r>
       <r>   -8.0148    1.0000 </r>
       <r>   -7.8221    1.0000 </r>
       <r>   -7.6193    1.0000 </r>
       <r>   -7.6057    1.0000 </r>
       <r>   -7.4070    1.0000 </r>
       <r>   -7.2685    1.0000 </r>
       <r>   -7.2113    1.0000 </r>
       <r>   -7.2057    1.0000 </r>
       <r>   -7.1210    1.0000 </r>
       <r>   -7.0701    1.0000 </r>
       <r>   -6.9166    1.0000 </r>
       <r>   -6.9129    1.0000 </r>
       <r>   -6.7352    1.0000 </r>
       <r>   -6.5864    1.0000 </r>
       <r>   -6.5685    1.0000 </r>
       <r>   -6.4334    1.0000 </r>
       <r>   -6.2398    1.0000 </r>
       <r>   -5.9450    1.0000 </r>
       <r>   -5.8207    1.0000 </r>
       <r>   -5.4216    1.0000 </r>
       <r>   -5.3997    1.0000 </r>
       <r>   -5.2900    1.0000 </r>
       <r>   -4.9683    1.0000 </r>
       <r>   -4.8614    1.0000 </r>
       <r>   -4.3202    1.0000 </r>
       <r>   -4.2819    1.0000 </r>
       <r>   -3.4211    1.0000 </r>
       <r>   -3.2707    1.0000 </r>
       <r>   -3.1228    0.0000 </r>
       <r>   -3.1002    0.0000 </r>
       <r>   -2.5121    0.0000 </r>
       <r>   -2.0174    0.0000 </r>
       <r>   -1.8787    0.0000 </r>
       <r>   -1.7541    0.0000 </r>
       <r>   -1.4677    0.0000 </r>
       <r>   -1.2692    0.0000 </r>
       <r>   -1.0843    0.0000 </r>
       <r>   -0.9006    0.0000 </r>
       <r>   -0.5791    0.0000 </r>
       <r>   -0.5594    0.0000 </r>
       <r>   -0.3886    0.0000 </r>
       <r>    0.1262    0.0000 </r>
       <r>    0.2593    0.0000 </r>
       <r>    0.4340    0.0000 </r>
       <r>    0.4400    0.0000 </r>
       <r>    0.8994    0.0000 </r>
       <r>    0.9084    0.0000 </r>
       <r>    0.9414    0.0000 </r>
       <r>    0.9599    0.0000 </r>
       <r>    1.1036    0.0000 </r>
       <r>    1.2332    0.0000 </r>
       <r>    1.2832    0.0000 </r>
       <r>    1.3587    0.0000 </r>
       <r>    1.4404    0.0000 </r>
       <r>    1.5169    0.0000 </r>
       <r>    1.6869    0.0000 </r>
       <r>    1.7961    0.0000 </r>
       <r>    1.7964    0.0000 </r>
       <r>    1.8764    0.0000 </r>
       <r>    1.8782    0.0000 </r>
      </set>
     </set>
    </set>
   </array>
  </eigenvalues>
  <separator name="orbital magnetization" >
   <v name="MAGDIPOLOUT">      0.00000000      0.00000000      0.00000000</v>
  </separator>
 </calculation>
 <structure name="finalpos" >
  <crystal>
   <varray name="basis" >
    <v>       9.79547248      -0.00333527      -0.00000053 </v>
    <v>       4.90145290       8.48156207       0.00000839 </v>
    <v>      -0.00000267       0.00005124      49.95175233 </v>
   </varray>
   <i name="volume">   4150.85352548 </i>
   <varray name="rec_basis" >
    <v>       0.10206790      -0.05898453       0.00000007 </v>
    <v>       0.00004014       0.11787961      -0.00000012 </v>
    <v>       0.00000000      -0.00000002       0.02001932 </v>
   </varray>
  </crystal>
  <varray name="positions" >
   <v>       0.00037109       0.00032523       0.45751524 </v>
   <v>       0.08342726       0.08340273       0.45628254 </v>
   <v>       0.00037250       0.00032877       0.38248712 </v>
   <v>       0.08343042       0.08340672       0.38372384 </v>
   <v>       0.99854131       0.25059044       0.45537546 </v>
   <v>       0.08342018       0.33290984       0.45627529 </v>
   <v>       0.99854133       0.25059576       0.38463039 </v>
   <v>       0.08342335       0.33290960       0.38373052 </v>
   <v>       0.00038317       0.49901811       0.45750420 </v>
   <v>       0.08429182       0.58271153       0.45592849 </v>
   <v>       0.00038331       0.49902457       0.38249720 </v>
   <v>       0.08429223       0.58271391       0.38406972 </v>
   <v>       1.00008844       0.74981718       0.45722149 </v>
   <v>       0.08429782       0.83273458       0.45593609 </v>
   <v>       1.00009383       0.74982104       0.38277594 </v>
   <v>       0.08429768       0.83273928       0.38406292 </v>
   <v>       0.25060881       0.99853024       0.45536224 </v>
   <v>       0.33293573       0.08339591       0.45626146 </v>
   <v>       0.25061222       0.99853280       0.38464318 </v>
   <v>       0.33293176       0.08340155       0.38374391 </v>
   <v>       0.25060779       0.25057965       0.45535688 </v>
   <v>       0.33378343       0.33373846       0.44964417 </v>
   <v>       0.25061016       0.25058240       0.38464824 </v>
   <v>       0.33378356       0.33374044       0.39035558 </v>
   <v>       0.24574330       0.50142030       0.44800330 </v>
   <v>       0.29315471       0.60329186       0.43433977 </v>
   <v>       0.24574884       0.50142386       0.39199446 </v>
   <v>       0.29315909       0.60329155       0.40565753 </v>
   <v>       0.24575157       0.75255022       0.44800833 </v>
   <v>       0.33379291       0.83219732       0.44965051 </v>
   <v>       0.24575836       0.75254918       0.39199006 </v>
   <v>       0.33379421       0.83220201       0.39034973 </v>
   <v>       0.49905605       0.00034054       0.45748629 </v>
   <v>       0.58275880       0.08422018       0.45591358 </v>
   <v>       0.49906205       0.00034232       0.38251443 </v>
   <v>       0.58275933       0.08422237       0.38408419 </v>
   <v>       0.50146878       0.24566623       0.44799811 </v>
   <v>       0.60335032       0.29307678       0.43433764 </v>
   <v>       0.50147186       0.24567229       0.39199976 </v>
   <v>       0.60334934       0.29308106       0.40566003 </v>
   <v>       0.60335444       0.60331545       0.43433686 </v>
   <v>       0.60335576       0.60331739       0.40566065 </v>
   <v>       0.50147554       0.75259461       0.44800005 </v>
   <v>       0.58275836       0.83276000       0.45591122 </v>
   <v>       0.50147971       0.75259436       0.39199825 </v>
   <v>       0.58276017       0.83276599       0.38408680 </v>
   <v>       0.74987699       1.00001575       0.45721126 </v>
   <v>       0.83278583       0.08423183       0.45593436 </v>
   <v>       0.74987824       1.00002454       0.38278580 </v>
   <v>       0.83278871       0.08423304       0.38406461 </v>
   <v>       0.75259051       0.24569769       0.44801454 </v>
   <v>       0.83219577       0.33377070       0.44966559 </v>
   <v>       0.75258855       0.24570592       0.39198427 </v>
   <v>       0.83220005       0.33377243       0.39033521 </v>
   <v>       0.75260648       0.50144134       0.44801139 </v>
   <v>       0.83278609       0.58272674       0.45592432 </v>
   <v>       0.75260479       0.50144689       0.39198728 </v>
   <v>       0.83279150       0.58272984       0.38407417 </v>
   <v>       0.74989578       0.74984738       0.45720431 </v>
   <v>       0.83328610       0.83322285       0.45844632 </v>
   <v>       0.74989674       0.74985098       0.38279248 </v>
   <v>       0.83328861       0.83322554       0.38155043 </v>
  </varray>
 </structure>
</modeling>
