unknown system                          
           1
     9.846720    0.000000    0.000000
     4.930000    8.528480    0.000000
     0.000000    0.000000   50.000000
   C 
  62
Direct configuration=     1
   0.00042034  0.00035945  0.45749584
   0.08339851  0.08340258  0.45627531
   0.00042555  0.00036596  0.38250926
   0.08339673  0.08340309  0.38373320
   0.99866874  0.25054577  0.45536203
   0.08341520  0.33289959  0.45626585
   0.99867560  0.25054485  0.38464434
   0.08341295  0.33290881  0.38374214
   0.00041292  0.49896431  0.45748135
   0.08408213  0.58279119  0.45591511
   0.00041990  0.49895819  0.38252243
   0.08408595  0.58279795  0.38408358
   0.99997967  0.74988911  0.45721279
   0.08409652  0.83282933  0.45592510
   0.99998468  0.74988798  0.38278437
   0.08410234  0.83282885  0.38407455
   0.25056023  0.99867548  0.45534460
   0.33291295  0.08340865  0.45624794
   0.25055780  0.99868257  0.38466141
   0.33292248  0.08340772  0.38375965
   0.25053795  0.25050355  0.45533856
   0.33378329  0.33372390  0.44970508
   0.25053352  0.25050362  0.38466742
   0.33378959  0.33373049  0.39029393
   0.24550476  0.50128449  0.44804756
   0.29230634  0.60369959  0.43431926
   0.24550899  0.50128508  0.39194839
   0.29231887  0.60369506  0.40567723
   0.24553331  0.75291226  0.44805518
   0.33380659  0.83216909  0.44971044
   0.24553990  0.75291318  0.39194129
   0.33381591  0.83216255  0.39028865
   0.49900761  0.00036102  0.45745949
   0.58284209  0.08397902  0.45589509
   0.49899748  0.00036983  0.38254350
   0.58284633  0.08398523  0.38410272
   0.50134462  0.24536135  0.44804095
   0.60376544  0.29216693  0.43431521
   0.50134376  0.24536648  0.39195539
   0.60376179  0.29217887  0.40568208
   0.60380378  0.60380973  0.43431627
   0.60380273  0.60381137  0.40568099
   0.50136607  0.75301887  0.44804382
   0.58284695  0.83291641  0.45589166
   0.50136929  0.75302290  0.39195309
   0.58285207  0.83291900  0.38410637
   0.74996574  0.99987699  0.45719809
   0.83287393  0.08402251  0.45592277
   0.74996477  0.99988171  0.38279816
   0.83287078  0.08403181  0.38407676
   0.75294647  0.24546385  0.44806549
   0.83212590  0.33379958  0.44973034
   0.75294624  0.24547019  0.39193168
   0.83211671  0.33381094  0.39026985
   0.75297045  0.50134057  0.44806064
   0.83291010  0.58282392  0.45590900
   0.75297516  0.50134434  0.39193675
   0.83290917  0.58283174  0.38408983
   0.74995227  0.74990164  0.45718765
   0.83330423  0.83323813  0.45840992
   0.74995424  0.74990387  0.38280836
   0.83330707  0.83324695  0.38158422
unknown system                          
           1
     9.703455   -0.006267   -0.000002
     4.852843    8.399731    0.000000
    -0.000012    0.000010   49.929335
   C 
  62
Direct configuration=     2
   0.00027145  0.00020888  0.45747525
   0.08349157  0.08349395  0.45625839
   0.00025788  0.00020082  0.38252822
   0.08350577  0.08350731  0.38374921
   0.99854171  0.25056489  0.45535350
   0.08343188  0.33281320  0.45624893
   0.99852567  0.25057969  0.38465349
   0.08344430  0.33278886  0.38375812
   0.00032670  0.49920911  0.45746117
   0.08402538  0.58258117  0.45589176
   0.00031393  0.49924494  0.38254123
   0.08402507  0.58256646  0.38410662
   1.00008144  0.74981294  0.45718748
   0.08405756  0.83312232  0.45590175
   1.00007999  0.74982925  0.38280942
   0.08405494  0.83313502  0.38409759
   0.25058496  0.99853511  0.45533580
   0.33282570  0.08343061  0.45623099
   0.25059802  0.99852618  0.38467060
   0.33278916  0.08344925  0.38377572
   0.25061399  0.25057179  0.45532944
   0.33361182  0.33356018  0.44970278
   0.25062812  0.25057954  0.38467698
   0.33359963  0.33355381  0.39029546
   0.24533546  0.50163315  0.44803053
   0.29223248  0.60374353  0.43437103
   0.24534803  0.50164310  0.39196734
   0.29223644  0.60374377  0.40562448
   0.24537384  0.75269247  0.44803657
   0.33364300  0.83255126  0.44971088
   0.24538792  0.75267821  0.39196181
   0.33363576  0.83257115  0.39028789
   0.49924368  0.00027640  0.45743917
   0.58263103  0.08392792  0.45587172
   0.49928275  0.00026680  0.38256231
   0.58261570  0.08392874  0.38412610
   0.50169869  0.24519237  0.44802352
   0.60381641  0.29208787  0.43437071
   0.50171128  0.24520288  0.39197454
   0.60381342  0.29209118  0.40562543
   0.60383955  0.60384113  0.43436464
   0.60384325  0.60384328  0.40563141
   0.50170269  0.75283413  0.44802670
   0.58264217  0.83314790  0.45586859
   0.50171558  0.75282358  0.39197164
   0.58263381  0.83316116  0.38412966
   0.74989257  0.99997615  0.45717314
   0.83316421  0.08399294  0.45589914
   0.74989818  0.99998754  0.38282321
   0.83317836  0.08398755  0.38409991
   0.75272276  0.24530189  0.44804634
   0.83249784  0.33364103  0.44973011
   0.75270676  0.24531944  0.39195276
   0.83252173  0.33363227  0.39026921
   0.75278711  0.50168000  0.44804331
   0.83314095  0.58261764  0.45588592
   0.75277100  0.50169557  0.39195579
   0.83316010  0.58260841  0.38411278
   0.74997166  0.74991427  0.45716486
   0.83324519  0.83318388  0.45840089
   0.74997679  0.74992909  0.38283093
   0.83324866  0.83317514  0.38159508
unknown system                          
           1
     9.799969   -0.003944   -0.000001
     4.903177    8.485125    0.000005
    -0.000004    0.000031   49.950096
   C 
  62
Direct configuration=     3
   0.00047444  0.00045314  0.45750928
   0.08339899  0.08335789  0.45626632
   0.00049078  0.00046697  0.38249428
   0.08339025  0.08335282  0.38374107
   0.99855344  0.25059540  0.45538306
   0.08342677  0.33292989  0.45625724
   0.99857332  0.25058753  0.38462293
   0.08341958  0.33295465  0.38374955
   0.00042809  0.49883727  0.45749633
   0.08415505  0.58289835  0.45593232
   0.00044439  0.49880965  0.38250606
   0.08416014  0.58291714  0.38406634
   1.00000562  0.74985944  0.45720221
   0.08415210  0.83268099  0.45594206
   1.00001463  0.74985242  0.38279487
   0.08415747  0.83267646  0.38405744
   0.25057321  0.99859242  0.45536768
   0.33298152  0.08337809  0.45624071
   0.25056306  0.99861012  0.38463793
   0.33301221  0.08336922  0.38376563
   0.25054312  0.25055313  0.45536200
   0.33385451  0.33376684  0.44966242
   0.25053056  0.25054898  0.38464336
   0.33386978  0.33377813  0.39033788
   0.24582710  0.50136531  0.44800286
   0.29284771  0.60343327  0.43424465
   0.24582973  0.50135927  0.39199340
   0.29285622  0.60343201  0.40575250
   0.24585109  0.75251187  0.44800997
   0.33385740  0.83209241  0.44966978
   0.24585631  0.75251906  0.39198699
   0.33387165  0.83207582  0.39033063
   0.49883134  0.00042055  0.45747574
   0.58298941  0.08402882  0.45591533
   0.49879810  0.00043712  0.38252588
   0.58300520  0.08403740  0.38408274
   0.50138917  0.24574718  0.44799464
   0.60351035  0.29272220  0.43424196
   0.50137862  0.24575332  0.39200189
   0.60350949  0.29273007  0.40575576
   0.60353506  0.60350676  0.43423798
   0.60353503  0.60350890  0.40575966
   0.50140536  0.75258601  0.44799706
   0.58300238  0.83276305  0.45591393
   0.50140101  0.75259531  0.39200013
   0.58301583  0.83275776  0.38408423
   0.74989925  0.99994405  0.45718845
   0.83276050  0.08405052  0.45594114
   0.74989732  0.99994625  0.38280786
   0.83275014  0.08406161  0.38405838
   0.75252477  0.24580277  0.44801660
   0.83209174  0.33381527  0.44968986
   0.75253185  0.24580794  0.39198088
   0.83207142  0.33383131  0.39031144
   0.75254357  0.50141565  0.44801182
   0.83280976  0.58293142  0.45592987
   0.75255448  0.50141220  0.39198562
   0.83279668  0.58295026  0.38406898
   0.74986807  0.74985193  0.45717793
   0.83335398  0.83324836  0.45843158
   0.74986751  0.74984632  0.38281834
   0.83335584  0.83326378  0.38156453
unknown system                          
           1
     9.800019   -0.003511   -0.000005
     4.903577    8.485281   -0.000001
    -0.000027    0.000009   49.976385
   C 
  62
Direct configuration=     4
   0.00005501 -0.00009280  0.45751859
   0.08359775  0.08369937  0.45627879
   0.00000551 -0.00012358  0.38248380
   0.08363740  0.08373497  0.38372816
   0.99842983  0.25061599  0.45537570
   0.08348637  0.33255908  0.45627160
   0.99837899  0.25065056  0.38463170
   0.08351865  0.33248392  0.38373484
   0.00022100  0.49965215  0.45750634
   0.08459923  0.58215698  0.45591607
   0.00017492  0.49976107  0.38249514
   0.08460079  0.58210069  0.38408188
   0.99995592  0.74992344  0.45721935
   0.08466472  0.83291390  0.45592220
   0.99993736  0.74996200  0.38277778
   0.08466916  0.83294165  0.38407691
   0.25073149  0.99832231  0.45535964
   0.33246541  0.08358984  0.45625648
   0.25076798  0.99828337  0.38464712
   0.33236214  0.08363548  0.38374960
   0.25080407  0.25066720  0.45535289
   0.33366839  0.33369296  0.44966199
   0.25084664  0.25068861  0.38465395
   0.33362521  0.33367101  0.39033483
   0.24548504  0.50168248  0.44800924
   0.29306107  0.60334803  0.43444512
   0.24549562  0.50171559  0.39199011
   0.29306351  0.60334587  0.40555057
   0.24545498  0.75254571  0.44801541
   0.33374172  0.83231192  0.44966693
   0.24546153  0.75252013  0.39198400
   0.33371311  0.83237039  0.39033103
   0.49980018  0.00007106  0.45748746
   0.58212028  0.08460809  0.45589753
   0.49991903  0.00003253  0.38251314
   0.58206557  0.08460690  0.38409994
   0.50179391  0.24534415  0.44800570
   0.60339128  0.29298719  0.43443992
   0.50183905  0.24534522  0.39199363
   0.60338649  0.29299048  0.40555624
   0.60339407  0.60338059  0.43444804
   0.60339680  0.60338219  0.40554802
   0.50179006  0.75261374  0.44800874
   0.58212308  0.83285605  0.45589056
   0.50182423  0.75258860  0.39199051
   0.58208109  0.83289053  0.38410773
   0.75008603  0.99976710  0.45721022
   0.83288177  0.08467427  0.45591773
   0.75009773  0.99978097  0.38278686
   0.83292214  0.08466841  0.38408096
   0.75263048  0.24535391  0.44802665
   0.83222691  0.33379270  0.44967993
   0.75259944  0.24536267  0.39197344
   0.83229309  0.33376577  0.39031826
   0.75266831  0.50169890  0.44802336
   0.83279184  0.58218679  0.45590449
   0.75263518  0.50173369  0.39197676
   0.83284571  0.58213426  0.38409394
   0.75021180  0.75006840  0.45720734
   0.83311380  0.83314956  0.45843603
   0.75022361  0.75010709  0.38278868
   0.83312003  0.83311799  0.38156043
unknown system                          
           1
     9.794801   -0.002730   -0.000000
     4.901641    8.481458    0.000008
    -0.000001    0.000049   49.961864
   C 
  62
Direct configuration=     5
   0.00040992  0.00037925  0.45751354
   0.08337102  0.08333229  0.45628162
   0.00041978  0.00038766  0.38248914
   0.08336863  0.08333139  0.38372509
   0.99849612  0.25061995  0.45537428
   0.08338219  0.33301306  0.45627404
   0.99850607  0.25061978  0.38463156
   0.08338065  0.33302496  0.38373209
   0.00039489  0.49894298  0.45750202
   0.08423932  0.58276967  0.45592672
   0.00040266  0.49893166  0.38249965
   0.08423969  0.58278284  0.38407152
   1.00021887  0.74974607  0.45721600
   0.08422929  0.83274277  0.45593526
   1.00022876  0.74974425  0.38278144
   0.08422728  0.83274363  0.38406374
   0.25061654  0.99850719  0.45536074
   0.33305429  0.08334291  0.45625975
   0.25061325  0.99851852  0.38464465
   0.33306564  0.08334246  0.38374593
   0.25060026  0.25059405  0.45535551
   0.33382295  0.33377113  0.44964728
   0.25059418  0.25059253  0.38464955
   0.33383198  0.33377821  0.39035295
   0.24572795  0.50136811  0.44800789
   0.29309923  0.60331751  0.43436421
   0.24573313  0.50136561  0.39198932
   0.29310515  0.60331731  0.40563311
   0.24574823  0.75261726  0.44801288
   0.33382220  0.83212474  0.44965403
   0.24575634  0.75261984  0.39198511
   0.33382999  0.83211812  0.39034648
   0.49896335  0.00036852  0.45748343
   0.58283048  0.08415449  0.45591142
   0.49895055  0.00037610  0.38251752
   0.58284149  0.08415761  0.38408634
   0.50141060  0.24565430  0.44800198
   0.60338178  0.29301346  0.43436249
   0.50140515  0.24566208  0.39199545
   0.60338127  0.29301884  0.40563523
   0.60338772  0.60334492  0.43436001
   0.60338865  0.60334670  0.40563757
   0.50141935  0.75265941  0.44800370
   0.58282815  0.83278543  0.45590981
   0.50141748  0.75266365  0.39199428
   0.58283833  0.83278638  0.38408810
   0.74979523  1.00015664  0.45720493
   0.83280890  0.08414614  0.45593393
   0.74979532  1.00016463  0.38279199
   0.83280456  0.08414795  0.38406509
   0.75265034  0.24569873  0.44801880
   0.83212586  0.33379564  0.44967075
   0.75265307  0.24570835  0.39197962
   0.83211787  0.33380274  0.39033042
   0.75266181  0.50139362  0.44801547
   0.83282664  0.58278511  0.45592367
   0.75266556  0.50139378  0.39198280
   0.83282355  0.58279852  0.38407480
   0.74979842  0.74976096  0.45719685
   0.83332309  0.83323496  0.45843932
   0.74979729  0.74975822  0.38279993
   0.83332514  0.83324445  0.38155722
unknown system                          
           1
     9.789845   -0.003425   -0.000000
     4.898558    8.476696    0.000008
    -0.000002    0.000047   49.951333
   C 
  62
Direct configuration=     6
   0.00035312  0.00029491  0.45751255
   0.08343206  0.08342359  0.45628196
   0.00035270  0.00029728  0.38248993
   0.08343547  0.08342908  0.38372460
   0.99851688  0.25060508  0.45537246
   0.08342597  0.33287239  0.45627447
   0.99851938  0.25060778  0.38463343
   0.08342830  0.33287283  0.38373150
   0.00036096  0.49908600  0.45750117
   0.08425494  0.58267300  0.45592682
   0.00036197  0.49909274  0.38250032
   0.08425884  0.58267293  0.38407149
   1.00008055  0.74983167  0.45721919
   0.08426266  0.83278833  0.45593450
   1.00008088  0.74983718  0.38277813
   0.08426733  0.83279257  0.38406466
   0.25063096  0.99850051  0.45535871
   0.33289196  0.08341157  0.45626030
   0.25063227  0.99850465  0.38464675
   0.33289004  0.08341603  0.38374524
   0.25063026  0.25059503  0.45535307
   0.33375810  0.33371170  0.44964799
   0.25063161  0.25059769  0.38465211
   0.33375882  0.33371428  0.39035179
   0.24571186  0.50143209  0.44800717
   0.29313527  0.60329888  0.43432799
   0.24571547  0.50143607  0.39199035
   0.29314052  0.60329877  0.40566929
   0.24571976  0.75257549  0.44801279
   0.33377173  0.83224093  0.44965408
   0.24572397  0.75257521  0.39198536
   0.33377462  0.83224392  0.39034617
   0.49912352  0.00031312  0.45748286
   0.58272278  0.08418300  0.45591142
   0.49912841  0.00031625  0.38251793
   0.58272129  0.08418877  0.38408644
   0.50147842  0.24563195  0.44800192
   0.60336048  0.29305299  0.43432649
   0.50148200  0.24563607  0.39199574
   0.60335991  0.29305816  0.40567118
   0.60336726  0.60332658  0.43432526
   0.60336828  0.60332849  0.40567227
   0.50148116  0.75262418  0.44800430
   0.58273344  0.83282149  0.45590894
   0.50148592  0.75262543  0.39199380
   0.58273313  0.83282514  0.38408920
   0.74989716  0.99999774  0.45720875
   0.83283243  0.08420249  0.45593250
   0.74989977  1.00000119  0.38278816
   0.83283566  0.08420874  0.38406662
   0.75261552  0.24566293  0.44801931
   0.83223506  0.33375170  0.44966969
   0.75261389  0.24566796  0.39197928
   0.83223752  0.33375597  0.39033115
   0.75263091  0.50145161  0.44801601
   0.83284431  0.58269932  0.45592228
   0.75263109  0.50145719  0.39198244
   0.83284749  0.58270007  0.38407634
   0.74990533  0.74985747  0.45720157
   0.83328025  0.83322362  0.45844071
   0.74990890  0.74986338  0.38279507
   0.83328296  0.83322686  0.38155599
unknown system                          
           1
     9.795472   -0.003335   -0.000001
     4.901453    8.481562    0.000008
    -0.000003    0.000051   49.951752
   C 
  62
Direct configuration=     7
   0.00037109  0.00032523  0.45751524
   0.08342726  0.08340273  0.45628254
   0.00037250  0.00032877  0.38248712
   0.08343042  0.08340672  0.38372384
   0.99854131  0.25059044  0.45537546
   0.08342018  0.33290984  0.45627529
   0.99854133  0.25059576  0.38463039
   0.08342335  0.33290960  0.38373052
   0.00038317  0.49901811  0.45750420
   0.08429182  0.58271153  0.45592849
   0.00038331  0.49902457  0.38249720
   0.08429223  0.58271391  0.38406972
   1.00008844  0.74981718  0.45722149
   0.08429782  0.83273458  0.45593609
   1.00009383  0.74982104  0.38277594
   0.08429768  0.83273928  0.38406292
   0.25060881  0.99853024  0.45536224
   0.33293573  0.08339591  0.45626146
   0.25061222  0.99853280  0.38464318
   0.33293176  0.08340155  0.38374391
   0.25060779  0.25057965  0.45535688
   0.33378343  0.33373846  0.44964417
   0.25061016  0.25058240  0.38464824
   0.33378356  0.33374044  0.39035558
   0.24574330  0.50142030  0.44800330
   0.29315471  0.60329186  0.43433977
   0.24574884  0.50142386  0.39199446
   0.29315909  0.60329155  0.40565753
   0.24575157  0.75255022  0.44800833
   0.33379291  0.83219732  0.44965051
   0.24575836  0.75254918  0.39199006
   0.33379421  0.83220201  0.39034973
   0.49905605  0.00034054  0.45748629
   0.58275880  0.08422018  0.45591358
   0.49906205  0.00034232  0.38251443
   0.58275933  0.08422237  0.38408419
   0.50146878  0.24566623  0.44799811
   0.60335032  0.29307678  0.43433764
   0.50147186  0.24567229  0.39199976
   0.60334934  0.29308106  0.40566003
   0.60335444  0.60331545  0.43433686
   0.60335576  0.60331739  0.40566065
   0.50147554  0.75259461  0.44800005
   0.58275836  0.83276000  0.45591122
   0.50147971  0.75259436  0.39199825
   0.58276017  0.83276599  0.38408680
   0.74987699  1.00001575  0.45721126
   0.83278583  0.08423183  0.45593436
   0.74987824  1.00002454  0.38278580
   0.83278871  0.08423304  0.38406461
   0.75259051  0.24569769  0.44801454
   0.83219577  0.33377070  0.44966559
   0.75258855  0.24570592  0.39198427
   0.83220005  0.33377243  0.39033521
   0.75260648  0.50144134  0.44801139
   0.83278609  0.58272674  0.45592432
   0.75260479  0.50144689  0.39198728
   0.83279150  0.58272984  0.38407417
   0.74989578  0.74984738  0.45720431
   0.83328610  0.83322285  0.45844632
   0.74989674  0.74985098  0.38279248
   0.83328861  0.83322554  0.38155043
