  31  31   0   0
  0.1344950E+03  0.9816209E-09  0.9833105E-09  0.4991258E-08  0.5000000E-15
  1.000000000000000E-004
  CAR 
 unknown system                          
      3.78759907    -24.58077450  301     -3.94420285      1.00000000
    -24.581  0.0000E+00  0.0000E+00  0.0000E+00  0.0000E+00
    -24.486  0.0000E+00  0.0000E+00  0.0000E+00  0.0000E+00
    -24.392  0.0000E+00  0.0000E+00  0.0000E+00  0.0000E+00
    -24.297  0.0000E+00  0.0000E+00  0.0000E+00  0.0000E+00
    -24.203  0.0000E+00  0.0000E+00  0.0000E+00  0.0000E+00
    -24.108  0.0000E+00  0.0000E+00  0.0000E+00  0.0000E+00
    -24.013  0.0000E+00  0.0000E+00  0.0000E+00  0.0000E+00
    -23.919  0.0000E+00  0.0000E+00  0.0000E+00  0.0000E+00
    -23.824  0.0000E+00  0.0000E+00  0.0000E+00  0.0000E+00
    -23.730  0.0000E+00  0.0000E+00  0.0000E+00  0.0000E+00
    -23.635  0.0000E+00  0.0000E+00  0.0000E+00  0.0000E+00
    -23.541  0.0000E+00  0.0000E+00  0.0000E+00  0.0000E+00
    -23.446  0.0000E+00  0.0000E+00  0.0000E+00  0.0000E+00
    -23.351  0.0000E+00  0.0000E+00  0.0000E+00  0.0000E+00
    -23.257  0.2740E+01  0.1591E+01  0.4710E-01  0.1568E-01
    -23.162  0.2833E+01  0.2751E+01  0.3079E+00  0.2697E+00
    -23.068  0.5194E+01  0.5786E+01  0.6389E+00  0.5708E+00
    -22.973  0.7800E+01  0.2014E+01  0.9727E+00  0.9396E+00
    -22.879  0.0000E+00  0.0000E+00  0.1000E+01  0.1000E+01
    -22.784  0.3907E+01  0.3181E+01  0.1180E+01  0.1130E+01
    -22.690  0.2109E+01  0.2281E+01  0.1484E+01  0.1457E+01
    -22.595  0.1275E+01  0.1297E+01  0.1636E+01  0.1621E+01
    -22.500  0.3697E+01  0.1179E+01  0.1808E+01  0.1738E+01
    -22.406  0.3418E+01  0.3502E+01  0.2142E+01  0.2070E+01
    -22.311  0.3398E+01  0.3367E+01  0.2452E+01  0.2383E+01
    -22.217  0.2100E+01  0.2386E+01  0.2735E+01  0.2693E+01
    -22.122  0.1221E+01  0.1319E+01  0.2881E+01  0.2860E+01
    -22.028  0.6283E+00  0.7344E+00  0.2968E+01  0.2958E+01
    -21.933  0.5359E+01  0.9170E+01  0.3312E+01  0.3154E+01
    -21.838  0.2693E+01  0.2874E+01  0.3612E+01  0.3551E+01
    -21.744  0.2084E+01  0.2253E+01  0.3838E+01  0.3793E+01
    -21.649  0.7623E+00  0.7190E+00  0.4094E+01  0.4081E+01
    -21.555  0.4668E+01  0.1021E+01  0.4207E+01  0.4163E+01
    -21.460  0.1696E+01  0.1600E+01  0.4417E+01  0.4388E+01
    -21.366  0.2167E+01  0.2077E+01  0.4600E+01  0.4563E+01
    -21.271  0.2672E+01  0.2586E+01  0.4829E+01  0.4784E+01
    -21.177  0.2379E+01  0.2282E+01  0.5109E+01  0.5071E+01
    -21.082  0.8859E+00  0.1402E+01  0.5316E+01  0.5304E+01
    -20.987  0.1578E+01  0.1247E+01  0.5432E+01  0.5393E+01
    -20.893  0.4341E+01  0.7898E+01  0.6094E+01  0.5970E+01
    -20.798  0.1099E+01  0.1112E+01  0.6228E+01  0.6181E+01
    -20.704  0.1215E+01  0.1254E+01  0.6337E+01  0.6293E+01
    -20.609  0.1540E+01  0.1459E+01  0.6462E+01  0.6419E+01
    -20.515  0.3353E+01  0.2081E+01  0.6649E+01  0.6586E+01
    -20.420  0.3771E+01  0.3684E+01  0.6970E+01  0.6889E+01
    -20.326  0.2863E+01  0.3109E+01  0.7340E+01  0.7273E+01
    -20.231  0.2310E+01  0.2544E+01  0.7584E+01  0.7540E+01
    -20.136  0.6355E+00  0.6584E+00  0.7724E+01  0.7710E+01
    -20.042  0.2287E+01  0.3840E+01  0.7928E+01  0.7849E+01
    -19.947  0.2345E+01  0.2492E+01  0.8205E+01  0.8147E+01
    -19.853  0.1854E+01  0.2091E+01  0.8408E+01  0.8364E+01
    -19.758  0.2463E+01  0.1565E+01  0.8626E+01  0.8532E+01
    -19.664  0.3402E+01  0.2987E+01  0.8885E+01  0.8805E+01
    -19.569  0.2846E+01  0.2742E+01  0.9217E+01  0.9144E+01
    -19.474  0.2149E+01  0.2632E+01  0.9525E+01  0.9478E+01
    -19.380  0.1942E+01  0.1983E+01  0.9718E+01  0.9681E+01
    -19.285  0.1734E+01  0.1779E+01  0.9892E+01  0.9859E+01
    -19.191  0.1605E+01  0.1576E+01  0.1005E+02  0.1002E+02
    -19.096  0.2012E+01  0.1910E+01  0.1022E+02  0.1018E+02
    -19.002  0.3488E+01  0.3030E+01  0.1045E+02  0.1039E+02
    -18.907  0.1657E+01  0.5909E+01  0.1091E+02  0.1083E+02
    -18.813  0.3523E+01  0.8593E+00  0.1114E+02  0.1100E+02
    -18.718  0.4039E+01  0.4287E+01  0.1157E+02  0.1146E+02
    -18.623  0.3829E+01  0.4436E+01  0.1195E+02  0.1186E+02
    -18.529  0.0000E+00  0.0000E+00  0.1200E+02  0.1200E+02
    -18.434  0.1345E+01  0.1061E+01  0.1207E+02  0.1204E+02
    -18.340  0.2588E+01  0.2289E+01  0.1225E+02  0.1220E+02
    -18.245  0.2684E+01  0.3032E+01  0.1253E+02  0.1247E+02
    -18.151  0.7027E+01  0.5142E+01  0.1291E+02  0.1275E+02
    -18.056  0.3954E+01  0.3598E+01  0.1335E+02  0.1327E+02
    -17.961  0.2618E+01  0.1232E+02  0.1378E+02  0.1368E+02
    -17.867  0.2186E+01  0.2377E+01  0.1401E+02  0.1393E+02
    -17.772  0.1753E+01  0.1916E+01  0.1420E+02  0.1413E+02
    -17.678  0.5769E+00  0.1624E+01  0.1437E+02  0.1429E+02
    -17.583  0.7213E+00  0.6050E+00  0.1443E+02  0.1441E+02
    -17.489  0.1247E+01  0.1029E+01  0.1452E+02  0.1448E+02
    -17.394  0.2127E+01  0.1834E+01  0.1467E+02  0.1462E+02
    -17.300  0.3060E+01  0.3184E+01  0.1498E+02  0.1488E+02
    -17.205  0.1029E+01  0.3648E+01  0.1521E+02  0.1514E+02
    -17.110  0.1064E+01  0.1091E+01  0.1530E+02  0.1526E+02
    -17.016  0.1157E+01  0.1126E+01  0.1541E+02  0.1536E+02
    -16.921  0.1357E+01  0.1331E+01  0.1553E+02  0.1548E+02
    -16.827  0.2784E+01  0.1705E+01  0.1570E+02  0.1562E+02
    -16.732  0.2261E+01  0.2592E+01  0.1594E+02  0.1587E+02
    -16.638  0.1297E+01  0.1908E+01  0.1616E+02  0.1608E+02
    -16.543  0.1806E+01  0.1903E+01  0.1634E+02  0.1630E+02
    -16.449  0.5239E+01  0.3224E+01  0.1659E+02  0.1648E+02
    -16.354  0.2769E+01  0.2835E+01  0.1695E+02  0.1689E+02
    -16.259  0.2848E+01  0.2895E+01  0.1721E+02  0.1716E+02
    -16.165  0.3552E+01  0.2955E+01  0.1753E+02  0.1743E+02
    -16.070  0.3967E+01  0.3688E+01  0.1787E+02  0.1779E+02
    -15.976  0.3646E+01  0.3660E+01  0.1822E+02  0.1815E+02
    -15.881  0.2233E+01  0.2169E+01  0.1847E+02  0.1843E+02
    -15.787  0.2224E+01  0.1880E+01  0.1868E+02  0.1861E+02
    -15.692  0.5814E+01  0.3020E+01  0.1898E+02  0.1883E+02
    -15.597  0.2740E+01  0.2825E+01  0.1932E+02  0.1925E+02
    -15.503  0.2070E+01  0.2227E+01  0.1955E+02  0.1949E+02
    -15.408  0.3315E+02  0.1628E+01  0.1974E+02  0.1967E+02
    -15.314  0.4240E+01  0.5915E+00  0.1983E+02  0.1980E+02
    -15.219  0.3439E+01  0.3845E+01  0.2020E+02  0.2010E+02
    -15.125  0.2541E+01  0.2857E+01  0.2048E+02  0.2041E+02
    -15.030  0.1248E+01  0.3257E+01  0.2071E+02  0.2065E+02
    -14.936  0.2184E+01  0.2069E+01  0.2090E+02  0.2084E+02
    -14.841  0.2550E+01  0.2405E+01  0.2112E+02  0.2105E+02
    -14.746  0.3081E+01  0.2937E+01  0.2138E+02  0.2131E+02
    -14.652  0.3913E+01  0.3278E+01  0.2183E+02  0.2174E+02
    -14.557  0.7588E+00  0.8547E+00  0.2192E+02  0.2190E+02
    -14.463  0.4279E+00  0.5025E+00  0.2197E+02  0.2196E+02
    -14.368  0.1141E+00  0.1621E+00  0.2200E+02  0.2200E+02
    -14.274  0.5065E+01  0.3202E+01  0.2226E+02  0.2214E+02
    -14.179  0.1790E+01  0.2100E+01  0.2260E+02  0.2254E+02
    -14.084  0.2868E+01  0.2622E+01  0.2283E+02  0.2276E+02
    -13.990  0.3208E+01  0.3280E+01  0.2315E+02  0.2303E+02
    -13.895  0.1481E+01  0.1378E+01  0.2329E+02  0.2325E+02
    -13.801  0.3344E+01  0.1696E+01  0.2352E+02  0.2340E+02
    -13.706  0.5329E+01  0.5002E+01  0.2393E+02  0.2379E+02
    -13.612  0.2195E+01  0.2087E+01  0.2440E+02  0.2433E+02
    -13.517  0.2991E+01  0.2905E+01  0.2465E+02  0.2457E+02
    -13.423  0.3788E+01  0.3812E+01  0.2497E+02  0.2489E+02
    -13.328  0.2581E+01  0.2891E+01  0.2528E+02  0.2523E+02
    -13.233  0.2347E+01  0.2190E+01  0.2551E+02  0.2546E+02
    -13.139  0.1917E+01  0.2068E+01  0.2572E+02  0.2567E+02
    -13.044  0.1407E+01  0.1464E+01  0.2587E+02  0.2584E+02
    -12.950  0.1528E+01  0.9070E+00  0.2598E+02  0.2596E+02
    -12.855  0.4935E+01  0.2445E+01  0.2627E+02  0.2612E+02
    -12.761  0.2609E+01  0.3367E+01  0.2663E+02  0.2656E+02
    -12.666  0.3780E+01  0.2150E+01  0.2687E+02  0.2678E+02
    -12.571  0.3604E+01  0.9419E+01  0.2731E+02  0.2720E+02
    -12.477  0.3980E+01  0.4110E+01  0.2768E+02  0.2756E+02
    -12.382  0.1690E+01  0.1785E+01  0.2793E+02  0.2790E+02
    -12.288  0.6984E+01  0.1669E+02  0.2837E+02  0.2809E+02
    -12.193  0.3607E+01  0.3543E+01  0.2871E+02  0.2863E+02
    -12.099  0.2550E+01  0.2444E+01  0.2898E+02  0.2892E+02
    -12.004  0.2532E+01  0.2589E+01  0.2922E+02  0.2916E+02
    -11.910  0.1336E+01  0.1268E+01  0.2946E+02  0.2942E+02
    -11.815  0.1732E+01  0.1444E+01  0.2959E+02  0.2955E+02
    -11.720  0.3182E+01  0.2890E+01  0.2983E+02  0.2974E+02
    -11.626  0.2006E+01  0.6867E+01  0.3028E+02  0.3012E+02
    -11.531  0.9768E+00  0.9623E+00  0.3041E+02  0.3040E+02
    -11.437  0.6936E+01  0.9263E+01  0.3125E+02  0.3108E+02
    -11.342  0.2853E+01  0.2625E+01  0.3162E+02  0.3155E+02
    -11.248  0.6486E+01  0.5743E+01  0.3215E+02  0.3202E+02
    -11.153  0.3448E+01  0.8312E+01  0.3282E+02  0.3267E+02
    -11.059  0.5963E+01  0.6194E+01  0.3329E+02  0.3320E+02
    -10.964  0.6258E+01  0.5192E+01  0.3382E+02  0.3371E+02
    -10.869  0.4194E+01  0.4379E+01  0.3429E+02  0.3421E+02
    -10.775  0.7068E+01  0.9309E+01  0.3488E+02  0.3474E+02
    -10.680  0.3832E+01  0.1408E+02  0.3558E+02  0.3522E+02
    -10.586  0.2762E+01  0.2865E+01  0.3584E+02  0.3579E+02
    -10.491  0.2753E+01  0.2926E+01  0.3671E+02  0.3665E+02
    -10.397  0.7453E+01  0.7832E+01  0.3754E+02  0.3737E+02
    -10.302  0.5118E+01  0.4498E+01  0.3804E+02  0.3794E+02
    -10.207  0.6142E+01  0.7225E+01  0.3897E+02  0.3885E+02
    -10.113  0.2847E+01  0.4026E+01  0.3941E+02  0.3935E+02
    -10.018  0.8591E+01  0.7399E+01  0.4011E+02  0.3993E+02
     -9.924  0.6209E+01  0.6172E+01  0.4079E+02  0.4063E+02
     -9.829  0.5025E+01  0.7232E+01  0.4138E+02  0.4123E+02
     -9.735  0.7820E+01  0.1116E+02  0.4232E+02  0.4215E+02
     -9.640  0.5396E+01  0.4935E+01  0.4280E+02  0.4266E+02
     -9.546  0.3874E+01  0.3805E+01  0.4337E+02  0.4329E+02
     -9.451  0.3245E+01  0.3028E+01  0.4387E+02  0.4383E+02
     -9.356  0.3572E+01  0.4840E+01  0.4427E+02  0.4420E+02
     -9.262  0.2562E+01  0.2032E+01  0.4455E+02  0.4450E+02
     -9.167  0.6674E+01  0.4774E+01  0.4496E+02  0.4481E+02
     -9.073  0.7669E+01  0.7734E+01  0.4564E+02  0.4545E+02
     -8.978  0.5067E+01  0.3165E+01  0.4609E+02  0.4593E+02
     -8.884  0.4423E+01  0.1919E+01  0.4658E+02  0.4645E+02
     -8.789  0.7589E+01  0.7683E+01  0.4715E+02  0.4695E+02
     -8.694  0.2416E+01  0.2065E+01  0.4748E+02  0.4741E+02
     -8.600  0.3658E+01  0.1402E+02  0.4836E+02  0.4812E+02
     -8.505  0.5264E+01  0.3601E+01  0.4868E+02  0.4859E+02
     -8.411  0.1413E+01  0.6998E+01  0.4934E+02  0.4928E+02
     -8.316  0.3190E+01  0.1540E+01  0.4951E+02  0.4942E+02
     -8.222  0.5633E+01  0.1024E+02  0.4996E+02  0.4980E+02
     -8.127  0.1086E+01  0.0000E+00  0.5001E+02  0.5000E+02
     -8.033  0.6669E+01  0.4603E+01  0.5042E+02  0.5026E+02
     -7.938  0.5864E+01  0.1787E+02  0.5117E+02  0.5091E+02
     -7.843  0.2282E+01  0.3529E+01  0.5160E+02  0.5129E+02
     -7.749  0.6624E+01  0.3963E+01  0.5182E+02  0.5157E+02
     -7.654  0.4857E+01  0.5502E+01  0.5241E+02  0.5227E+02
     -7.560  0.4844E+01  0.4687E+01  0.5291E+02  0.5273E+02
     -7.465  0.5677E+01  0.3322E+01  0.5338E+02  0.5306E+02
     -7.371  0.1669E+02  0.2738E+01  0.5387E+02  0.5346E+02
     -7.276  0.3189E+01  0.7690E+01  0.5453E+02  0.5400E+02
     -7.182  0.5209E+01  0.2417E+01  0.5500E+02  0.5423E+02
     -7.087  0.2297E+01  0.1880E+01  0.5537E+02  0.5482E+02
     -6.992  0.2068E+01  0.2348E+01  0.5561E+02  0.5553E+02
     -6.898  0.1889E+01  0.2080E+01  0.5580E+02  0.5574E+02
     -6.803  0.1753E+01  0.1812E+01  0.5597E+02  0.5592E+02
     -6.709  0.2023E+01  0.2002E+01  0.5615E+02  0.5610E+02
     -6.614  0.2293E+01  0.2244E+01  0.5635E+02  0.5630E+02
     -6.520  0.8317E+01  0.2522E+01  0.5666E+02  0.5653E+02
     -6.425  0.5072E+01  0.5338E+01  0.5733E+02  0.5721E+02
     -6.330  0.0000E+00  0.7440E+01  0.5800E+02  0.5798E+02
     -6.236  0.2070E+01  0.1420E+01  0.5805E+02  0.5802E+02
     -6.141  0.2280E+01  0.2361E+01  0.5832E+02  0.5827E+02
     -6.047  0.2275E+01  0.2263E+01  0.5853E+02  0.5849E+02
     -5.952  0.2278E+01  0.2252E+01  0.5875E+02  0.5870E+02
     -5.858  0.2652E+01  0.2319E+01  0.5897E+02  0.5891E+02
     -5.763  0.9457E+01  0.4265E+01  0.5933E+02  0.5921E+02
     -5.669  0.2301E+01  0.1991E+01  0.5954E+02  0.5948E+02
     -5.574  0.4880E+01  0.3573E+01  0.5980E+02  0.5971E+02
     -5.479  0.1802E+01  0.3933E+01  0.6016E+02  0.6006E+02
     -5.385  0.5410E+00  0.5280E+00  0.6025E+02  0.6024E+02
     -5.290  0.5796E+00  0.5673E+00  0.6030E+02  0.6029E+02
     -5.196  0.6182E+00  0.6067E+00  0.6036E+02  0.6035E+02
     -5.101  0.6592E+00  0.6460E+00  0.6042E+02  0.6041E+02
     -5.007  0.1330E+01  0.1138E+01  0.6051E+02  0.6048E+02
     -4.912  0.3402E+01  0.2733E+01  0.6069E+02  0.6063E+02
     -4.817  0.1482E+01  0.1861E+01  0.6092E+02  0.6087E+02
     -4.723  0.0000E+00  0.0000E+00  0.6100E+02  0.6100E+02
     -4.628  0.0000E+00  0.0000E+00  0.6100E+02  0.6100E+02
     -4.534  0.0000E+00  0.0000E+00  0.6100E+02  0.6100E+02
     -4.439  0.0000E+00  0.0000E+00  0.6100E+02  0.6100E+02
     -4.345  0.5983E+00  0.0000E+00  0.6100E+02  0.6100E+02
     -4.250  0.1561E+01  0.0000E+00  0.6118E+02  0.6100E+02
     -4.156  0.2103E+01  0.1746E+01  0.6135E+02  0.6118E+02
     -4.061  0.3414E+01  0.2425E+01  0.6186E+02  0.6138E+02
     -3.966  0.3047E+01  0.2878E+01  0.6224E+02  0.6163E+02
     -3.872  0.6985E+01  0.1836E+01  0.6265E+02  0.6185E+02
     -3.777  0.2287E+00  0.5508E+00  0.6300E+02  0.6200E+02
     -3.683  0.0000E+00  0.0000E+00  0.6300E+02  0.6200E+02
     -3.588  0.2215E+01  0.0000E+00  0.6316E+02  0.6200E+02
     -3.494  0.6177E+01  0.1955E+01  0.6351E+02  0.6209E+02
     -3.399  0.2552E+01  0.4476E+01  0.6395E+02  0.6235E+02
     -3.304  0.0000E+00  0.3105E+01  0.6400E+02  0.6275E+02
     -3.210  0.0000E+00  0.4654E+00  0.6400E+02  0.6300E+02
     -3.115  0.0000E+00  0.0000E+00  0.6400E+02  0.6300E+02
     -3.021  0.6290E+00  0.9358E+01  0.6406E+02  0.6316E+02
     -2.926  0.9267E+00  0.3977E+01  0.6414E+02  0.6366E+02
     -2.832  0.1224E+01  0.4289E+01  0.6424E+02  0.6410E+02
     -2.737  0.1522E+01  0.1655E+01  0.6437E+02  0.6432E+02
     -2.643  0.9592E+00  0.1184E+01  0.6450E+02  0.6448E+02
     -2.548  0.6664E+00  0.6807E+00  0.6457E+02  0.6456E+02
     -2.453  0.6213E+00  0.6351E+00  0.6464E+02  0.6463E+02
     -2.359  0.5762E+00  0.5895E+00  0.6469E+02  0.6468E+02
     -2.264  0.4986E+01  0.4584E+01  0.6487E+02  0.6480E+02
     -2.170  0.2953E+01  0.4552E+01  0.6529E+02  0.6520E+02
     -2.075  0.1904E+01  0.2072E+01  0.6550E+02  0.6547E+02
     -1.981  0.7264E+01  0.7102E+01  0.6593E+02  0.6581E+02
     -1.886  0.1899E+01  0.1502E+01  0.6629E+02  0.6625E+02
     -1.792  0.2612E+01  0.5379E+01  0.6679E+02  0.6672E+02
     -1.697  0.1127E+01  0.1477E+01  0.6697E+02  0.6695E+02
     -1.602  0.3397E+01  0.2775E+01  0.6711E+02  0.6704E+02
     -1.508  0.1079E+02  0.8895E+01  0.6778E+02  0.6752E+02
     -1.413  0.2543E+00  0.2772E+00  0.6796E+02  0.6795E+02
     -1.319  0.1816E+00  0.1982E+00  0.6798E+02  0.6798E+02
     -1.224  0.5199E+01  0.1390E+01  0.6813E+02  0.6802E+02
     -1.130  0.2335E+01  0.3431E+01  0.6849E+02  0.6840E+02
     -1.035  0.1318E+01  0.1468E+01  0.6864E+02  0.6860E+02
     -0.940  0.3701E+01  0.3130E+01  0.6885E+02  0.6874E+02
     -0.846  0.2148E+01  0.2146E+01  0.6909E+02  0.6904E+02
     -0.751  0.2388E+01  0.2384E+01  0.6931E+02  0.6925E+02
     -0.657  0.6197E+01  0.2179E+01  0.6956E+02  0.6948E+02
     -0.562  0.1637E+01  0.1550E+01  0.6972E+02  0.6968E+02
     -0.468  0.1690E+01  0.1673E+01  0.6988E+02  0.6983E+02
     -0.373  0.1753E+01  0.1800E+01  0.7004E+02  0.6999E+02
     -0.279  0.4598E+01  0.2913E+01  0.7025E+02  0.7019E+02
     -0.184  0.3343E+01  0.3265E+01  0.7057E+02  0.7052E+02
     -0.089  0.3683E+01  0.3633E+01  0.7091E+02  0.7085E+02
      0.005  0.4836E+01  0.4584E+01  0.7133E+02  0.7126E+02
      0.100  0.4793E+01  0.5578E+01  0.7184E+02  0.7172E+02
      0.194  0.8518E+00  0.2130E+01  0.7218E+02  0.7211E+02
      0.289  0.3578E+01  0.3416E+01  0.7242E+02  0.7239E+02
      0.383  0.4137E+01  0.3243E+01  0.7285E+02  0.7276E+02
      0.478  0.3864E+01  0.4132E+01  0.7329E+02  0.7324E+02
      0.573  0.3512E+01  0.3611E+01  0.7362E+02  0.7360E+02
      0.667  0.1174E+02  0.1011E+02  0.7433E+02  0.7426E+02
      0.762  0.1408E+02  0.1491E+02  0.7529E+02  0.7520E+02
      0.856  0.6935E+01  0.7313E+01  0.7610E+02  0.7604E+02
      0.951  0.2095E+02  0.1917E+02  0.7723E+02  0.7719E+02
      1.045  0.1399E+02  0.1473E+02  0.7830E+02  0.7823E+02
      1.140  0.1279E+02  0.1272E+02  0.7902E+02  0.7900E+02
      1.234  0.8818E+01  0.8618E+01  0.8042E+02  0.8039E+02
      1.329  0.1059E+02  0.1015E+02  0.8186E+02  0.8178E+02
      1.424  0.1193E+02  0.1457E+02  0.8395E+02  0.8382E+02
      1.518  0.1327E+02  0.1416E+02  0.8498E+02  0.8491E+02
      1.613  0.2110E+02  0.2134E+02  0.8625E+02  0.8622E+02
      1.707  0.1999E+02  0.1910E+02  0.8820E+02  0.8810E+02
      1.802  0.1818E+02  0.1535E+02  0.8969E+02  0.8966E+02
      1.896  0.1626E+02  0.1636E+02  0.9140E+02  0.9137E+02
      1.991  0.1677E+02  0.2017E+02  0.9307E+02  0.9321E+02
      2.085  0.1104E+02  0.1022E+02  0.9434E+02  0.9446E+02
      2.180  0.6129E+01  0.5573E+01  0.9529E+02  0.9530E+02
      2.275  0.3213E+01  0.3249E+01  0.9573E+02  0.9572E+02
      2.369  0.1302E+01  0.1317E+01  0.9595E+02  0.9594E+02
      2.464  0.1375E+00  0.1785E+00  0.9600E+02  0.9600E+02
      2.558  0.0000E+00  0.0000E+00  0.9600E+02  0.9600E+02
      2.653  0.0000E+00  0.0000E+00  0.9600E+02  0.9600E+02
      2.747  0.0000E+00  0.0000E+00  0.9600E+02  0.9600E+02
      2.842  0.0000E+00  0.0000E+00  0.9600E+02  0.9600E+02
      2.937  0.0000E+00  0.0000E+00  0.9600E+02  0.9600E+02
      3.031  0.0000E+00  0.0000E+00  0.9600E+02  0.9600E+02
      3.126  0.0000E+00  0.0000E+00  0.9600E+02  0.9600E+02
      3.220  0.0000E+00  0.0000E+00  0.9600E+02  0.9600E+02
      3.315  0.0000E+00  0.0000E+00  0.9600E+02  0.9600E+02
      3.409  0.0000E+00  0.0000E+00  0.9600E+02  0.9600E+02
      3.504  0.0000E+00  0.0000E+00  0.9600E+02  0.9600E+02
      3.598  0.0000E+00  0.0000E+00  0.9600E+02  0.9600E+02
      3.693  0.0000E+00  0.0000E+00  0.9600E+02  0.9600E+02
      3.788  0.0000E+00  0.0000E+00  0.9600E+02  0.9600E+02
