       N       E                     dE             d eps       ncg     rms          rms(c)
DAV:   1     0.138649433995E+04    0.13865E+04   -0.43129E+04  5736   0.119E+03
DAV:   2     0.134269871290E+03   -0.12522E+04   -0.11075E+04  8604   0.191E+02
DAV:   3    -0.261536831598E+03   -0.39581E+03   -0.39149E+03  6612   0.118E+02
DAV:   4    -0.285678675450E+03   -0.24142E+02   -0.23839E+02  6576   0.400E+01
DAV:   5    -0.286183653525E+03   -0.50498E+00   -0.50193E+00  6636   0.582E+00    0.351E+01
DAV:   6    -0.200251075278E+03    0.85933E+02   -0.13323E+02  5460   0.270E+01    0.198E+01
DAV:   7    -0.226240942390E+03   -0.25990E+02   -0.23520E+01  6192   0.137E+01    0.140E+01
DAV:   8    -0.230505974465E+03   -0.42650E+01   -0.81534E+00  6000   0.816E+00    0.905E+00
DAV:   9    -0.239828169867E+03   -0.93222E+01   -0.33571E+00  5772   0.499E+00    0.722E+00
DAV:  10    -0.251419894904E+03   -0.11592E+02   -0.48314E+00  5280   0.553E+00    0.583E+00
DAV:  11    -0.261298336587E+03   -0.98784E+01   -0.44286E+00  5364   0.468E+00    0.486E+00
DAV:  12    -0.267883826031E+03   -0.65855E+01   -0.27755E+00  5376   0.334E+00    0.404E+00
DAV:  13    -0.274400480448E+03   -0.65167E+01   -0.41912E+00  5304   0.360E+00    0.336E+00
DAV:  14    -0.274930802519E+03   -0.53032E+00   -0.21048E-01  5700   0.121E+00    0.304E+00
DAV:  15    -0.275737041659E+03   -0.80624E+00   -0.22817E-01  5352   0.137E+00    0.271E+00
DAV:  16    -0.276358701914E+03   -0.62166E+00   -0.33430E-01  5400   0.171E+00    0.257E+00
DAV:  17    -0.276547365448E+03   -0.18866E+00   -0.55646E-02  5724   0.769E-01    0.231E+00
DAV:  18    -0.276663165100E+03   -0.11580E+00   -0.90068E-02  5616   0.739E-01    0.200E+00
DAV:  19    -0.276542720727E+03    0.12044E+00   -0.84869E-02  5424   0.768E-01    0.171E+00
DAV:  20    -0.276915813517E+03   -0.37309E+00   -0.39059E-02  5388   0.549E-01    0.127E+00
DAV:  21    -0.278132794161E+03   -0.12170E+01   -0.94550E-02  5988   0.802E-01    0.759E-01
DAV:  22    -0.278167080998E+03   -0.34287E-01   -0.16828E-02  5568   0.395E-01    0.535E-01
DAV:  23    -0.278185218941E+03   -0.18138E-01   -0.69722E-03  5316   0.285E-01    0.322E-01
DAV:  24    -0.278218246246E+03   -0.33027E-01   -0.62823E-03  5496   0.265E-01    0.179E-01
DAV:  25    -0.278239938307E+03   -0.21692E-01   -0.32126E-03  5400   0.219E-01    0.110E-01
DAV:  26    -0.278284435944E+03   -0.44498E-01   -0.13246E-03  5364   0.150E-01    0.408E-02
DAV:  27    -0.278292926430E+03   -0.84905E-02   -0.36092E-04  5676   0.694E-02    0.235E-02
DAV:  28    -0.278295858563E+03   -0.29321E-02   -0.10076E-04  5352   0.379E-02    0.177E-02
DAV:  29    -0.278299478280E+03   -0.36197E-02   -0.90546E-05  4992   0.337E-02    0.118E-02
DAV:  30    -0.278301840265E+03   -0.23620E-02   -0.78789E-05  4992   0.266E-02    0.772E-03
DAV:  31    -0.278302803350E+03   -0.96308E-03   -0.27157E-05  5016   0.165E-02    0.393E-03
DAV:  32    -0.278303230985E+03   -0.42764E-03   -0.88502E-06  5160   0.993E-03    0.248E-03
DAV:  33    -0.278303488315E+03   -0.25733E-03   -0.31107E-06  5016   0.736E-03    0.163E-03
DAV:  34    -0.278303632279E+03   -0.14396E-03   -0.20460E-06  4596   0.524E-03    0.120E-03
DAV:  35    -0.278303696362E+03   -0.64083E-04   -0.79693E-07  4488   0.324E-03    0.681E-04
DAV:  36    -0.278303749505E+03   -0.53143E-04   -0.68155E-07  4704   0.262E-03    0.415E-04
DAV:  37    -0.278303771202E+03   -0.21698E-04   -0.24905E-07  4728   0.191E-03    0.252E-04
DAV:  38    -0.278303780443E+03   -0.92406E-05   -0.52086E-08  3888   0.948E-04    0.165E-04
DAV:  39    -0.278303785718E+03   -0.52749E-05   -0.13182E-08  3900   0.460E-04    0.103E-04
DAV:  40    -0.278303788630E+03   -0.29123E-05   -0.51676E-09  3732   0.268E-04    0.627E-05
DAV:  41    -0.278303790083E+03   -0.14532E-05   -0.29930E-10  3900   0.164E-04    0.423E-05
DAV:  42    -0.278303791100E+03   -0.10165E-05    0.13970E-09  3600   0.113E-04    0.297E-05
DAV:  43    -0.278303791645E+03   -0.54511E-06    0.32707E-09  3768   0.772E-05    0.180E-05
DAV:  44    -0.278303792050E+03   -0.40497E-06    0.35319E-09  3768   0.573E-05    0.132E-05
DAV:  45    -0.278303792234E+03   -0.18385E-06    0.37682E-09  3672   0.425E-05    0.720E-06
DAV:  46    -0.278303792320E+03   -0.86018E-07    0.38684E-09  3816   0.293E-05
   1 F= -.28083105E+03 E0= -.28083105E+03  d E =0.000000E+00  mag=     0.6175
