 vasp.5.4.4.18Apr17-6-g9f103f2a35 (build Jan 12 2023 11:40:15) complex          
  
 executed on             LinuxIFC date 2024.01.13  00:37:07
 running on   48 total cores
 distrk:  each k-point on   48 cores,    1 groups
 distr:  one band on NCORES_PER_BAND=   8 cores,    6 groups


--------------------------------------------------------------------------------------------------------


 INCAR:
 POTCAR:    PAW_PBE C 08Apr2002                   
 POTCAR:    PAW_PBE C 08Apr2002                   
   SHA256 =  253f7b50bb8d59471dbedb8285d89021f4a42ed1a2c5d38a03a736e69125dd95 C/
   COPYR  = (c) Copyright 08Apr2002 Georg Kresse                                
   COPYR  = This file is part of the software VASP. Any use, copying, and all ot
   COPYR  = If you do not have a valid VASP license, you may not use, copy or di
   VRHFIN =C: s2p2                                                              
   LEXCH  = PE                                                                  
   EATOM  =   147.1560 eV,   10.8157 Ry                                         
                                                                                
   TITEL  = PAW_PBE C 08Apr2002                                                 
   LULTRA =        F    use ultrasoft PP ?                                      
   IUNSCR =        1    unscreen: 0-lin 1-nonlin 2-no                           
   RPACOR =    1.200    partial core radius                                     
   POMASS =   12.011; ZVAL   =    4.000    mass and valenz                      
   RCORE  =    1.500    outmost cutoff radius                                   
   RWIGS  =    1.630; RWIGS  =    0.863    wigner-seitz radius (au A)           
   ENMAX  =  400.000; ENMIN  =  300.000 eV                                      
   ICORE  =        2    local potential                                         
   LCOR   =        T    correct aug charges                                     
   LPAW   =        T    paw PP                                                  
   EAUG   =  644.873                                                            
   DEXC   =    0.000                                                            
   RMAX   =    1.529    core radius for proj-oper                               
   RAUG   =    1.300    factor for augmentation sphere                          
   RDEP   =    1.501    radius for radial grids                                 
   RDEPT  =    1.300    core radius for aug-charge                              
                                                                                
   Atomic configuration                                                         
    4 entries                                                                   
     n  l   j            E        occ.                                          
     1  0  0.50      -273.3789   2.0000                                         
     2  0  0.50       -13.7508   2.0000                                         
     2  1  0.50        -5.2854   2.0000                                         
     3  2  1.50        -5.4423   0.0000                                         
   Description                                                                  
     l       E           TYP  RCUT    TYP  RCUT                                 
     0    -13.7508458     23  1.200                                             
     0     -8.2022199     23  1.200                                             
     1     -5.2854383     23  1.500                                             
     1     34.0145650     23  1.500                                             
     2     -5.4423304      7  1.500                                             
  local pseudopotential read in
  partial core-charges read in
  partial kinetic energy density read in
  atomic valenz-charges read in
  non local Contribution for L=           0  read in
    real space projection operators read in
  non local Contribution for L=           0  read in
    real space projection operators read in
  non local Contribution for L=           1  read in
    real space projection operators read in
  non local Contribution for L=           1  read in
    real space projection operators read in
    PAW grid and wavefunctions read in
 
   number of l-projection  operators is LMAX  =           4
   number of lm-projection operators is LMMAX =           8
 

 ----------------------------------------------------------------------------- 
|                                                                             |
|  ADVICE TO THIS USER RUNNING 'VASP/VAMP'   (HEAR YOUR MASTER'S VOICE ...):  |
|                                                                             |
|      You have a (more or less) 'large supercell' and for larger cells       |
|      it might be more efficient to use real space projection opertators     |
|      So try LREAL= Auto  in the INCAR   file.                               |
|      Mind:          For very  accurate calculation you might also keep the  |
|      reciprocal projection scheme          (i.e. LREAL=.FALSE.)             |
|                                                                             |
 ----------------------------------------------------------------------------- 

  PAW_PBE C 08Apr2002                   :
 energy of atom  1       EATOM= -147.1560
 kinetic energy error for atom=    0.0012 (will be added to EATOM!!)
 
 
 POSCAR: POSCAR file written by OVITO Basic 3.7.8
  positions in direct lattice
  velocities in cartesian coordinates
 exchange correlation table for  LEXCH =        8
   RHO(1)=    0.500       N(1)  =     2000
   RHO(2)=  100.500       N(2)  =     4000
 


--------------------------------------------------------------------------------------------------------


 ion  position               nearest neighbor table
   1  0.000  0.000  0.440-   2 1.41  25 1.43   8 1.43
   2  0.083  0.083  0.440-   1 1.41   9 1.42   3 1.42
   3  0.999  0.250  0.440-  27 1.40   4 1.42   2 1.42
   4  0.083  0.333  0.440-   5 1.41  11 1.42   3 1.42
   5  0.000  0.499  0.440-   4 1.41  29 1.43   6 1.43
   6  0.085  0.583  0.440-   7 1.41   5 1.43  13 1.44
   7  0.001  0.749  0.440-   6 1.41   8 1.42  31 1.42
   8  0.085  0.832  0.440-   7 1.42   1 1.43  15 1.45
   9  0.250  0.000  0.440-  16 1.40  10 1.42   2 1.42
  10  0.333  0.083  0.440-  17 1.41   9 1.42  11 1.42
  11  0.250  0.250  0.440-  12 1.40   4 1.42  10 1.42
  12  0.332  0.332  0.440-  11 1.40  19 1.41  13 1.41
  13  0.255  0.498  0.440-  14 1.39  12 1.41   6 1.44
  14  0.333  0.583  0.440-  13 1.39  15 1.39
  15  0.255  0.747  0.440-  14 1.39  16 1.41   8 1.45
  16  0.332  0.835  0.440-   9 1.40  22 1.41  15 1.41
  17  0.499  0.000  0.440-  10 1.41  23 1.42  18 1.42
  18  0.583  0.084  0.440-  24 1.41  17 1.42  19 1.44
  19  0.498  0.253  0.440-  20 1.38  12 1.41  18 1.44
  20  0.583  0.330  0.440-  19 1.38  26 1.39
  21  0.584  0.586  0.440-  22 1.38  28 1.39
  22  0.498  0.749  0.440-  21 1.38  16 1.41  23 1.44
  23  0.583  0.833  0.440-  30 1.41  17 1.42  22 1.44
  24  0.750  0.000  0.440-  18 1.41  25 1.42  31 1.42
  25  0.832  0.084  0.440-  24 1.42   1 1.43  26 1.45
  26  0.747  0.254  0.440-  20 1.39  27 1.41  25 1.45
  27  0.834  0.333  0.440-   3 1.40  26 1.41  28 1.41
  28  0.747  0.499  0.440-  21 1.39  27 1.41  29 1.45
  29  0.832  0.583  0.440-  30 1.41   5 1.43  28 1.45
  30  0.750  0.750  0.440-  23 1.41  29 1.41  31 1.42
  31  0.834  0.833  0.440-   7 1.42  24 1.42  30 1.42
 

IMPORTANT INFORMATION: All symmetrisations will be switched off!
NOSYMM: (Re-)initialisation of all symmetry stuff for point group C_1.

 
 

Automatic generation of k-mesh.
 generate k-points for:    5    5    1
Space group operators:
 irot       det(A)        alpha          n_x          n_y          n_z        tau_x        tau_y        tau_z
    1     1.000000     0.000001     1.000000     0.000000     0.000000     0.000000     0.000000     0.000000
 
 Subroutine IBZKPT returns following result:
 ===========================================
 
 Found     13 irreducible k-points:
 
 Following reciprocal coordinates:
            Coordinates               Weight
  0.000000  0.000000  0.000000      1.000000
  0.200000 -0.000000 -0.000000      2.000000
  0.400000 -0.000000 -0.000000      2.000000
  0.000000  0.200000 -0.000000      2.000000
  0.200000  0.200000  0.000000      2.000000
  0.400000  0.200000  0.000000      2.000000
 -0.400000  0.200000 -0.000000      2.000000
 -0.200000  0.200000 -0.000000      2.000000
  0.000000  0.400000 -0.000000      2.000000
  0.200000  0.400000 -0.000000      2.000000
  0.400000  0.400000  0.000000      2.000000
 -0.400000  0.400000 -0.000000      2.000000
 -0.200000  0.400000 -0.000000      2.000000
 
 Following cartesian coordinates:
            Coordinates               Weight
  0.000000  0.000000  0.000000      1.000000
  0.020383 -0.011782 -0.000000      2.000000
  0.040766 -0.023564 -0.000000      2.000000
 -0.000017  0.023503 -0.000000      2.000000
  0.020366  0.011721 -0.000000      2.000000
  0.040749 -0.000061 -0.000000      2.000000
 -0.040783  0.047066 -0.000000      2.000000
 -0.020400  0.035284 -0.000000      2.000000
 -0.000034  0.047005 -0.000000      2.000000
  0.020349  0.035223 -0.000000      2.000000
  0.040732  0.023442 -0.000000      2.000000
 -0.040800  0.070569 -0.000000      2.000000
 -0.020417  0.058787 -0.000000      2.000000
 
 TETIRR: Found     72 inequivalent tetrahedra from      150


--------------------------------------------------------------------------------------------------------




 Dimension of arrays:
   k-points           NKPTS =     13   k-points in BZ     NKDIM =     13   number of bands    NBANDS=     96
   number of dos      NEDOS =    301   number of ions     NIONS =     31
   non local maximal  LDIM  =      4   non local SUM 2l+1 LMDIM =      8
   total plane-waves  NPLWV = ******
   max r-space proj   IRMAX =      1   max aug-charges    IRDMAX=  12719
   dimension x,y,z NGX =    96 NGY =   96 NGZ =  480
   dimension x,y,z NGXF=   192 NGYF=  192 NGZF=  960
   support grid    NGXF=   192 NGYF=  192 NGZF=  960
   ions per type =              31
   NGX,Y,Z   is equivalent  to a cutoff of  16.26, 16.23, 15.99 a.u.
   NGXF,Y,Z  is equivalent  to a cutoff of  32.52, 32.46, 31.98 a.u.

 SYSTEM =  unknown system                          
 POSCAR =  POSCAR file written by OVITO Basic 3.7.8

 Startparameter for this run:
   NWRITE =      2    write-flag & timer
   PREC   = accura    normal or accurate (medium, high low for compatibility)
   ISTART =      0    job   : 0-new  1-cont  2-samecut
   ICHARG =      2    charge: 1-file 2-atom 10-const
   ISPIN  =      2    spin polarized calculation?
   LNONCOLLINEAR =      F non collinear calculations
   LSORBIT =      F    spin-orbit coupling
   INIWAV =      1    electr: 0-lowe 1-rand  2-diag
   LASPH  =      F    aspherical Exc in radial PAW
   METAGGA=      F    non-selfconsistent MetaGGA calc.

 Electronic Relaxation 1
   ENCUT  =  850.0 eV  62.47 Ry    7.90 a.u.  23.34 23.38118.65*2*pi/ulx,y,z
   ENINI  =  850.0     initial cutoff
   ENAUG  =  644.9 eV  augmentation charge cutoff
   NELM   =    150;   NELMIN=  2; NELMDL= -5     # of ELM steps 
   EDIFF  = 0.1E-06   stopping-criterion for ELM
   LREAL  =      F    real-space projection
   NLSPLINE    = F    spline interpolate recip. space projectors
   LCOMPAT=      F    compatible to vasp.4.4
   GGA_COMPAT  = T    GGA compatible to vasp.4.4-vasp.4.6
   LMAXPAW     = -100 max onsite density
   LMAXMIX     =    2 max onsite mixed and CHGCAR
   VOSKOWN=      0    Vosko Wilk Nusair interpolation
   ROPT   =    0.00000
 Ionic relaxation
   EDIFFG = 0.1E-05   stopping-criterion for IOM
   NSW    =      1    number of steps for IOM
   NBLOCK =      1;   KBLOCK =      1    inner block; outer block 
   IBRION =     -1    ionic relax: 0-MD 1-quasi-New 2-CG
   NFREE  =      0    steps in history (QN), initial steepest desc. (CG)
   ISIF   =      2    stress and relaxation
   IWAVPR =     10    prediction:  0-non 1-charg 2-wave 3-comb
   ISYM   =      0    0-nonsym 1-usesym 2-fastsym
   LCORR  =      T    Harris-Foulkes like correction to forces

   POTIM  = 0.5000    time-step for ionic-motion
   TEIN   =    0.0    initial temperature
   TEBEG  =    0.0;   TEEND  =   0.0 temperature during run
   SMASS  =  -3.00    Nose mass-parameter (am)
   estimated Nose-frequenzy (Omega)   =  0.10E-29 period in steps =****** mass=  -0.220E-26a.u.
   SCALEE = 1.0000    scale energy and forces
   NPACO  =    256;   APACO  = 16.0  distance and # of slots for P.C.
   PSTRESS=    0.0 pullay stress

  Mass of Ions in am
   POMASS =  12.01
  Ionic Valenz
   ZVAL   =   4.00
  Atomic Wigner-Seitz radii
   RWIGS  =  -1.00
  virtual crystal weights 
   VCA    =   1.00
   NELECT =     124.0000    total number of electrons
   NUPDOWN=      -1.0000    fix difference up-down

 DOS related values:
   EMIN   =  10.00;   EMAX   =-10.00  energy-range for DOS
   EFERMI =   0.00
   ISMEAR =    -5;   SIGMA  =   0.02  broadening in eV -4-tet -1-fermi 0-gaus

 Electronic relaxation 2 (details)
   IALGO  =     38    algorithm
   LDIAG  =      T    sub-space diagonalisation (order eigenvalues)
   LSUBROT=      F    optimize rotation matrix (better conditioning)
   TURBO    =      0    0=normal 1=particle mesh
   IRESTART =      0    0=no restart 2=restart with 2 vectors
   NREBOOT  =      0    no. of reboots
   NMIN     =      0    reboot dimension
   EREF     =   0.00    reference energy to select bands
   IMIX   =      4    mixing-type and parameters
     AMIX     =   0.40;   BMIX     =  1.00
     AMIX_MAG =   1.60;   BMIX_MAG =  1.00
     AMIN     =   0.10
     WC   =   100.;   INIMIX=   1;  MIXPRE=   1;  MAXMIX= -45

 Intra band minimization:
   WEIMIN = 0.0000     energy-eigenvalue tresh-hold
   EBREAK =  0.26E-09  absolut break condition
   DEPER  =   0.30     relativ break condition  

   TIME   =   0.40     timestep for ELM

  volume/ion in A,a.u.               =     134.50       907.62
  Fermi-wavevector in a.u.,A,eV,Ry     =   0.507216  0.958499  3.500342  0.257268
  Thomas-Fermi vector in A             =   1.518624
 
 Write flags
   LWAVE        =      F    write WAVECAR
   LDOWNSAMPLE  =      F    k-point downsampling of WAVECAR
   LCHARG       =      F    write CHGCAR
   LVTOT        =      F    write LOCPOT, total local potential
   LVHAR        =      F    write LOCPOT, Hartree potential only
   LELF         =      F    write electronic localiz. function (ELF)
   LORBIT       =      0    0 simple, 1 ext, 2 COOP (PROOUT), +10 PAW based schemes


 Dipole corrections
   LMONO  =      F    monopole corrections only (constant potential shift)
   LDIPOL =      F    correct potential (dipole corrections)
   IDIPOL =      0    1-x, 2-y, 3-z, 4-all directions 
   EPSILON=  1.0000000 bulk dielectric constant

 Exchange correlation treatment:
   GGA     =    --    GGA type
   LEXCH   =     8    internal setting for exchange type
   VOSKOWN=      0    Vosko Wilk Nusair interpolation
   LHFCALC =     F    Hartree Fock is set to
   LHFONE  =     F    Hartree Fock one center treatment
   AEXX    =    0.0000 exact exchange contribution

 Linear response parameters
   LEPSILON=     F    determine dielectric tensor
   LRPA    =     F    only Hartree local field effects (RPA)
   LNABLA  =     F    use nabla operator in PAW spheres
   LVEL    =     F    velocity operator in full k-point grid
   LINTERFAST=   F  fast interpolation
   KINTER  =     0    interpolate to denser k-point grid
   CSHIFT  =0.1000    complex shift for real part using Kramers Kronig
   OMEGAMAX=  -1.0    maximum frequency
   DEG_THRESHOLD= 0.2000000E-02 threshold for treating states as degnerate
   RTIME   =   -0.100 relaxation time in fs
  (WPLASMAI=    0.000 imaginary part of plasma frequency in eV, 0.658/RTIME)
   DFIELD  = 0.0000000 0.0000000 0.0000000 field for delta impulse in time
 
 Orbital magnetization related:
   ORBITALMAG=     F  switch on orbital magnetization
   LCHIMAG   =     F  perturbation theory with respect to B field
   DQ        =  0.001000  dq finite difference perturbation B field
   LLRAUG    =     F  two centre corrections for induced B field



--------------------------------------------------------------------------------------------------------


 Static calculation
 charge density and potential will be updated during run
 spin polarized calculation
 Variant of blocked Davidson
 Davidson routine will perform the subspace rotation
 perform sub-space diagonalisation
    after iterative eigenvector-optimisation
 modified Broyden-mixing scheme, WC =      100.0
 initial mixing is a Kerker type mixing with AMIX =  0.4000 and BMIX =      1.0000
 Hartree-type preconditioning will be used
 using additional bands           34
 reciprocal scheme for non local part
 use partial core corrections
 calculate Harris-corrections to forces 
   (improved forces if not selfconsistent)
 use gradient corrections 
 use of overlap-Matrix (Vanderbilt PP)
 Fermi weights with tetrahedron method with Bloechl corrections


--------------------------------------------------------------------------------------------------------


  energy-cutoff  :      850.00
  volume of cell :     4169.35
      direct lattice vectors                 reciprocal lattice vectors
     9.816206797  0.007065829  0.000009519     0.101914748 -0.058908990 -0.000000011
     4.920842279  8.513240569  0.000017268    -0.000084587  0.117512977 -0.000000173
     0.000047872  0.000073598 49.912578381    -0.000000019 -0.000000029  0.020035030

  length of vectors
     9.816209340  9.833104989 49.912578381     0.117715270  0.117513007  0.020035030


 
 k-points in units of 2pi/SCALE and weight: read from INCAR                         
   0.00000000  0.00000000  0.00000000       0.040
   0.02038295 -0.01178180 -0.00000000       0.080
   0.04076590 -0.02356360 -0.00000000       0.080
  -0.00001692  0.02350260 -0.00000003       0.080
   0.02036603  0.01172080 -0.00000004       0.080
   0.04074898 -0.00006100 -0.00000004       0.080
  -0.04078282  0.04706619 -0.00000003       0.080
  -0.02039987  0.03528439 -0.00000003       0.080
  -0.00003383  0.04700519 -0.00000007       0.080
   0.02034911  0.03522339 -0.00000007       0.080
   0.04073206  0.02344159 -0.00000007       0.080
  -0.04079973  0.07056879 -0.00000006       0.080
  -0.02041678  0.05878699 -0.00000007       0.080
 
 k-points in reciprocal lattice and weights: read from INCAR                         
   0.00000000  0.00000000  0.00000000       0.040
   0.20000000 -0.00000000 -0.00000000       0.080
   0.40000000 -0.00000000 -0.00000000       0.080
   0.00000000  0.20000000 -0.00000000       0.080
   0.20000000  0.20000000  0.00000000       0.080
   0.40000000  0.20000000  0.00000000       0.080
  -0.40000000  0.20000000 -0.00000000       0.080
  -0.20000000  0.20000000 -0.00000000       0.080
   0.00000000  0.40000000 -0.00000000       0.080
   0.20000000  0.40000000 -0.00000000       0.080
   0.40000000  0.40000000  0.00000000       0.080
  -0.40000000  0.40000000 -0.00000000       0.080
  -0.20000000  0.40000000 -0.00000000       0.080
 
 position of ions in fractional coordinates (direct lattice) 
   0.00034999  0.00004198  0.43999953
   0.08291450  0.08344003  0.43999948
   0.99948794  0.25016326  0.43999963
   0.08291941  0.33325794  0.44000005
   0.00036488  0.49935238  0.44000009
   0.08454618  0.58316231  0.44000000
   0.00087229  0.74941483  0.44000008
   0.08456938  0.83200680  0.44000011
   0.24970673  0.00017488  0.44000031
   0.33302780  0.08329730  0.44000042
   0.24964665  0.24987110  0.44000020
   0.33218845  0.33221077  0.43999849
   0.25460856  0.49807955  0.43999830
   0.33325184  0.58311730  0.43999715
   0.25471243  0.74690889  0.43999984
   0.33220950  0.83523811  0.44000016
   0.49931885  0.00022678  0.43999954
   0.58343715  0.08352134  0.44000073
   0.49828564  0.25285437  0.44000247
   0.58345061  0.33001523  0.44000167
   0.58373395  0.58630501  0.44000952
   0.49839510  0.74858102  0.43999811
   0.58344669  0.83281739  0.43999873
   0.74983125  0.00018261  0.43999993
   0.83227979  0.08400217  0.43999844
   0.74693528  0.25399702  0.43999665
   0.83415067  0.33275926  0.44000077
   0.74705934  0.49888730  0.43999957
   0.83234264  0.58346304  0.43999913
   0.74986687  0.74972153  0.44000035
   0.83356637  0.83312353  0.44000059
 
 position of ions in cartesian coordinates  (Angst):
   0.00366325  0.00039225 21.96151083
   1.22452219  0.71096328 21.96151057
  11.04221531  2.13679463 21.96152986
   2.45388494  2.83772332 21.96154342
   2.46083710  4.25114188 21.96154746
   3.69959358  4.96523078 21.96154541
   3.69633581  6.37998728 21.96155119
   4.92434585  7.08370397 21.96155496
   2.45205451  0.00328560 21.96155219
   3.67898366  0.71151544 21.96155998
   3.68018050  2.12900912 21.96155130
   4.89560838  2.83056982 21.96146782
   4.95028229  4.24210245 21.96146062
   6.14071826  4.96660493 21.96140562
   6.17575178  6.36044722 21.96154175
   7.37113324  7.11296265 21.96155995
   4.90255409  0.00549109 21.96151617
   6.13815610  0.71519208 21.96157776
   6.13555240  2.15616330 21.96166668
   7.35124577  2.81365396 21.96162915
   8.61518870  4.99551252 21.96202546
   8.57601960  6.37640431 21.96145777
   9.82541747  7.09412970 21.96149127
   7.36141829  0.00688519 21.96153820
   8.58321300  0.72104380 21.96146595
   8.58197149  2.16764783 21.96137855
   9.82567238  2.83878597 21.96158637
   9.78825576  4.25245857 21.96152879
  11.04159817  4.97307481 21.96150889
  11.05013068  6.38789052 21.96157209
  12.28215040  7.09850328 21.96158629
 


--------------------------------------------------------------------------------------------------------


 k-point  1 :   0.0000 0.0000 0.0000  plane waves:  234743
 k-point  2 :   0.2000-0.0000-0.0000  plane waves:  234659
 k-point  3 :   0.4000-0.0000-0.0000  plane waves:  234577
 k-point  4 :   0.0000 0.2000-0.0000  plane waves:  234681
 k-point  5 :   0.2000 0.2000 0.0000  plane waves:  234670
 k-point  6 :   0.4000 0.2000 0.0000  plane waves:  234631
 k-point  7 :  -0.4000 0.2000-0.0000  plane waves:  234621
 k-point  8 :  -0.2000 0.2000-0.0000  plane waves:  234624
 k-point  9 :   0.0000 0.4000-0.0000  plane waves:  234589
 k-point 10 :   0.2000 0.4000-0.0000  plane waves:  234574
 k-point 11 :   0.4000 0.4000 0.0000  plane waves:  234573
 k-point 12 :  -0.4000 0.4000-0.0000  plane waves:  234640
 k-point 13 :  -0.2000 0.4000-0.0000  plane waves:  234646

 maximum and minimum number of plane-waves per node :     29404    29272

 maximum number of plane-waves:    234743
 maximum index in each direction: 
   IXMAX=   23   IYMAX=   23   IZMAX=  118
   IXMIN=  -23   IYMIN=  -23   IZMIN= -118


 parallel 3D FFT for wavefunctions:
    minimum data exchange during FFTs selected (reduces bandwidth)
 parallel 3D FFT for charge:
    minimum data exchange during FFTs selected (reduces bandwidth)


 total amount of memory used by VASP MPI-rank0   403245. kBytes
=======================================================================

   base      :      30000. kBytes
   nonl-proj :      38995. kBytes
   fftplans  :      41097. kBytes
   grid      :      97443. kBytes
   one-center:         24. kBytes
   wavefun   :     195686. kBytes
 
     INWAV:  cpu time    0.0000: real time    0.0000
 Broyden mixing: mesh for mixing (old mesh)
   NGX = 47   NGY = 47   NGZ =237
  (NGX  =192   NGY  =192   NGZ  =960)
  gives a total of 523533 points

 initial charge density was supplied:
 charge density of overlapping atoms calculated
 number of electron     124.0000000 magnetization      31.0000000
 keeping initial charge density in first step


--------------------------------------------------------------------------------------------------------


 Maximum index for augmentation-charges          578 (set IRDMAX)


--------------------------------------------------------------------------------------------------------


 First call to EWALD:  gamma=   0.110
 Maximum number of real-space cells 5x 5x 1
 Maximum number of reciprocal cells 2x 2x 7

    FEWALD:  cpu time    0.0017: real time    0.0017


--------------------------------------- Iteration      1(   1)  ---------------------------------------


    POTLOK:  cpu time    1.0767: real time    1.1063
    SETDIJ:  cpu time    0.0162: real time    0.0163
     EDDAV:  cpu time  115.0467: real time  115.3220
 BZINTS: Fermi energy:  5.017842;124.000000 electrons
         Band energy:-462.912165;  BLOECHL correction: -0.023006
       DOS:  cpu time    0.0139: real time    0.0139
    --------------------------------------------
      LOOP:  cpu time  116.1535: real time  116.4585

 eigenvalue-minimisations  :  5736
 total energy-change (2. order) : 0.1386494E+04  (-0.4312871E+04)
 number of electron     124.0000000 magnetization      31.0000000
 augmentation part      124.0000000 magnetization      31.0000000

 Free energy of the ion-electron system (eV)
  ---------------------------------------------------
  alpha Z        PSCENC =        18.93414581
  Ewald energy   TEWEN  =     61121.33006500
  -Hartree energ DENC   =    -64247.83058005
  -exchange      EXHF   =         0.00000000
  -V(xc)+E(xc)   XCENC  =       412.55146433
  PAW double counting   =      3360.20773451    -3377.58484670
  entropy T*S    EENTRO =         0.00000000
  eigenvalues    EBANDS =      -462.91216461
  atomic energy  EATOM  =      4561.79852166
  Solvation  Ediel_sol  =         0.00000000
  ---------------------------------------------------
  free energy    TOTEN  =      1386.49433995 eV

  energy without entropy =     1386.49433995  energy(sigma->0) =     1386.49433995


--------------------------------------------------------------------------------------------------------




--------------------------------------- Iteration      1(   2)  ---------------------------------------


     EDDAV:  cpu time  145.7662: real time  146.1331
 BZINTS: Fermi energy: -0.586022;124.000000 electrons
         Band energy:***********;  BLOECHL correction: -0.060598
       DOS:  cpu time    0.0128: real time    0.0128
    --------------------------------------------
      LOOP:  cpu time  145.7790: real time  146.1459

 eigenvalue-minimisations  :  8604
 total energy-change (2. order) :-0.1252224E+04  (-0.1107528E+04)
 number of electron     124.0000000 magnetization      31.0000000
 augmentation part      124.0000000 magnetization      31.0000000

 Free energy of the ion-electron system (eV)
  ---------------------------------------------------
  alpha Z        PSCENC =        18.93414581
  Ewald energy   TEWEN  =     61121.33006500
  -Hartree energ DENC   =    -64247.83058005
  -exchange      EXHF   =         0.00000000
  -V(xc)+E(xc)   XCENC  =       412.55146433
  PAW double counting   =      3360.20773451    -3377.58484670
  entropy T*S    EENTRO =         0.00000000
  eigenvalues    EBANDS =     -1715.13663327
  atomic energy  EATOM  =      4561.79852166
  Solvation  Ediel_sol  =         0.00000000
  ---------------------------------------------------
  free energy    TOTEN  =       134.26987129 eV

  energy without entropy =      134.26987129  energy(sigma->0) =      134.26987129


--------------------------------------------------------------------------------------------------------




--------------------------------------- Iteration      1(   3)  ---------------------------------------


     EDDAV:  cpu time  101.6813: real time  101.9360
 BZINTS: Fermi energy: -6.485746;124.000000 electrons
         Band energy:***********;  BLOECHL correction: -0.039306
       DOS:  cpu time    0.0134: real time    0.0135
    --------------------------------------------
      LOOP:  cpu time  101.6947: real time  101.9495

 eigenvalue-minimisations  :  6612
 total energy-change (2. order) :-0.3958067E+03  (-0.3914900E+03)
 number of electron     124.0000000 magnetization      31.0000000
 augmentation part      124.0000000 magnetization      31.0000000

 Free energy of the ion-electron system (eV)
  ---------------------------------------------------
  alpha Z        PSCENC =        18.93414581
  Ewald energy   TEWEN  =     61121.33006500
  -Hartree energ DENC   =    -64247.83058005
  -exchange      EXHF   =         0.00000000
  -V(xc)+E(xc)   XCENC  =       412.55146433
  PAW double counting   =      3360.20773451    -3377.58484670
  entropy T*S    EENTRO =         0.00000000
  eigenvalues    EBANDS =     -2110.94333616
  atomic energy  EATOM  =      4561.79852166
  Solvation  Ediel_sol  =         0.00000000
  ---------------------------------------------------
  free energy    TOTEN  =      -261.53683160 eV

  energy without entropy =     -261.53683160  energy(sigma->0) =     -261.53683160


--------------------------------------------------------------------------------------------------------




--------------------------------------- Iteration      1(   4)  ---------------------------------------


     EDDAV:  cpu time   98.5736: real time   98.8169
 BZINTS: Fermi energy: -7.541427;124.000000 electrons
         Band energy:***********;  BLOECHL correction: -0.002481
       DOS:  cpu time    0.0130: real time    0.0130
    --------------------------------------------
      LOOP:  cpu time   98.5866: real time   98.8299

 eigenvalue-minimisations  :  6576
 total energy-change (2. order) :-0.2414184E+02  (-0.2383881E+02)
 number of electron     124.0000000 magnetization      31.0000000
 augmentation part      124.0000000 magnetization      31.0000000

 Free energy of the ion-electron system (eV)
  ---------------------------------------------------
  alpha Z        PSCENC =        18.93414581
  Ewald energy   TEWEN  =     61121.33006500
  -Hartree energ DENC   =    -64247.83058005
  -exchange      EXHF   =         0.00000000
  -V(xc)+E(xc)   XCENC  =       412.55146433
  PAW double counting   =      3360.20773451    -3377.58484670
  entropy T*S    EENTRO =         0.00000000
  eigenvalues    EBANDS =     -2135.08518001
  atomic energy  EATOM  =      4561.79852166
  Solvation  Ediel_sol  =         0.00000000
  ---------------------------------------------------
  free energy    TOTEN  =      -285.67867545 eV

  energy without entropy =     -285.67867545  energy(sigma->0) =     -285.67867545


--------------------------------------------------------------------------------------------------------




--------------------------------------- Iteration      1(   5)  ---------------------------------------


     EDDAV:  cpu time   99.0649: real time   99.3068
 BZINTS: Fermi energy: -7.573554;124.000000 electrons
         Band energy:***********;  BLOECHL correction: -0.002058
       DOS:  cpu time    0.0131: real time    0.0131
    CHARGE:  cpu time    7.6788: real time    7.6971
    MIXING:  cpu time    0.0329: real time    0.0330
    --------------------------------------------
      LOOP:  cpu time  106.7896: real time  107.0500

 eigenvalue-minimisations  :  6636
 total energy-change (2. order) :-0.5049781E+00  (-0.5019307E+00)
 number of electron     123.9999996 magnetization      30.2761818
 augmentation part        3.2440377 magnetization      28.3892756

 Broyden mixing:
  rms(total) = 0.35120E+01    rms(broyden)= 0.35120E+01
  rms(prec ) = 0.35327E+01
  weight for this iteration     100.00

 Free energy of the ion-electron system (eV)
  ---------------------------------------------------
  alpha Z        PSCENC =        18.93414581
  Ewald energy   TEWEN  =     61121.33006500
  -Hartree energ DENC   =    -64247.83058005
  -exchange      EXHF   =         0.00000000
  -V(xc)+E(xc)   XCENC  =       412.55146433
  PAW double counting   =      3360.20773451    -3377.58484670
  entropy T*S    EENTRO =         0.00000000
  eigenvalues    EBANDS =     -2135.59015808
  atomic energy  EATOM  =      4561.79852166
  Solvation  Ediel_sol  =         0.00000000
  ---------------------------------------------------
  free energy    TOTEN  =      -286.18365352 eV

  energy without entropy =     -286.18365352  energy(sigma->0) =     -286.18365352


--------------------------------------------------------------------------------------------------------




--------------------------------------- Iteration      1(   6)  ---------------------------------------


    POTLOK:  cpu time    1.0044: real time    1.0175
    SETDIJ:  cpu time    0.0113: real time    0.0113
     EDDAV:  cpu time   90.8490: real time   91.0848
 BZINTS: Fermi energy: -6.659281;124.000000 electrons
         Band energy:***********;  BLOECHL correction: -0.022442
       DOS:  cpu time    0.0140: real time    0.0141
    CHARGE:  cpu time    6.5472: real time    6.5628
    MIXING:  cpu time    0.0302: real time    0.0303
    --------------------------------------------
      LOOP:  cpu time   98.4561: real time   98.7208

 eigenvalue-minimisations  :  5460
 total energy-change (2. order) : 0.8593258E+02  (-0.1332280E+02)
 number of electron     123.9999996 magnetization      29.4719349
 augmentation part        3.1827383 magnetization      25.7139617

 Broyden mixing:
  rms(total) = 0.19773E+01    rms(broyden)= 0.19773E+01
  rms(prec ) = 0.19948E+01
  weight for this iteration     100.00

 eigenvalues of (default mixing * dielectric matrix)
  average eigenvalue GAMMA=   0.9940
  0.9940

 Free energy of the ion-electron system (eV)
  ---------------------------------------------------
  alpha Z        PSCENC =        18.93414581
  Ewald energy   TEWEN  =     61121.33006500
  -Hartree energ DENC   =    -64425.58661986
  -exchange      EXHF   =         0.00000000
  -V(xc)+E(xc)   XCENC  =       474.94156186
  PAW double counting   =      6121.23708251    -6141.10144505
  entropy T*S    EENTRO =         0.00000000
  eigenvalues    EBANDS =     -1931.80438720
  atomic energy  EATOM  =      4561.79852166
  Solvation  Ediel_sol  =         0.00000000
  ---------------------------------------------------
  free energy    TOTEN  =      -200.25107528 eV

  energy without entropy =     -200.25107528  energy(sigma->0) =     -200.25107528


--------------------------------------------------------------------------------------------------------




--------------------------------------- Iteration      1(   7)  ---------------------------------------


    POTLOK:  cpu time    0.9640: real time    0.9778
    SETDIJ:  cpu time    0.0117: real time    0.0117
     EDDAV:  cpu time   96.5139: real time   96.7444
 BZINTS: Fermi energy: -5.121784;124.000000 electrons
         Band energy:***********;  BLOECHL correction:  0.000000
       DOS:  cpu time    0.0026: real time    0.0026
    CHARGE:  cpu time    6.2729: real time    6.2878
    MIXING:  cpu time    0.0286: real time    0.0287
    --------------------------------------------
      LOOP:  cpu time  103.7937: real time  104.0529

 eigenvalue-minimisations  :  6192
 total energy-change (2. order) :-0.2598987E+02  (-0.2352009E+01)
 number of electron     123.9999996 magnetization      28.5551632
 augmentation part        3.0978237 magnetization      26.5070780

 Broyden mixing:
  rms(total) = 0.13953E+01    rms(broyden)= 0.13953E+01
  rms(prec ) = 0.14037E+01
  weight for this iteration     100.00

 eigenvalues of (default mixing * dielectric matrix)
  average eigenvalue GAMMA=   1.0815
  1.4743  0.6886

 Free energy of the ion-electron system (eV)
  ---------------------------------------------------
  alpha Z        PSCENC =        18.93414581
  Ewald energy   TEWEN  =     61121.33006500
  -Hartree energ DENC   =    -64591.68430913
  -exchange      EXHF   =         0.00000000
  -V(xc)+E(xc)   XCENC  =       457.99570298
  PAW double counting   =      8967.03019799    -8988.25200132
  entropy T*S    EENTRO =         0.00000000
  eigenvalues    EBANDS =     -1773.39326538
  atomic energy  EATOM  =      4561.79852166
  Solvation  Ediel_sol  =         0.00000000
  ---------------------------------------------------
  free energy    TOTEN  =      -226.24094239 eV

  energy without entropy =     -226.24094239  energy(sigma->0) =     -226.24094239


--------------------------------------------------------------------------------------------------------




--------------------------------------- Iteration      1(   8)  ---------------------------------------


    POTLOK:  cpu time    0.9576: real time    0.9686
    SETDIJ:  cpu time    0.0094: real time    0.0094
     EDDAV:  cpu time   92.9470: real time   93.1763
 BZINTS: Fermi energy: -4.268084;124.000000 electrons
         Band energy:***********;  BLOECHL correction:  0.000000
       DOS:  cpu time    0.0025: real time    0.0025
    CHARGE:  cpu time    6.2451: real time    6.2599
    MIXING:  cpu time    0.0300: real time    0.0301
    --------------------------------------------
      LOOP:  cpu time  100.1916: real time  100.4469

 eigenvalue-minimisations  :  6000
 total energy-change (2. order) :-0.4265032E+01  (-0.8153357E+00)
 number of electron     123.9999996 magnetization      27.5638189
 augmentation part        3.0133795 magnetization      25.5210136

 Broyden mixing:
  rms(total) = 0.90514E+00    rms(broyden)= 0.90514E+00
  rms(prec ) = 0.90707E+00
  weight for this iteration     100.00

 eigenvalues of (default mixing * dielectric matrix)
  average eigenvalue GAMMA=   1.2658
  2.1709  0.9568  0.6697

 Free energy of the ion-electron system (eV)
  ---------------------------------------------------
  alpha Z        PSCENC =        18.93414581
  Ewald energy   TEWEN  =     61121.33006500
  -Hartree energ DENC   =    -64713.06258921
  -exchange      EXHF   =         0.00000000
  -V(xc)+E(xc)   XCENC  =       457.98686149
  PAW double counting   =     11430.86930454   -11452.73640107
  entropy T*S    EENTRO =         0.00000000
  eigenvalues    EBANDS =     -1655.62588267
  atomic energy  EATOM  =      4561.79852166
  Solvation  Ediel_sol  =         0.00000000
  ---------------------------------------------------
  free energy    TOTEN  =      -230.50597446 eV

  energy without entropy =     -230.50597446  energy(sigma->0) =     -230.50597446


--------------------------------------------------------------------------------------------------------




--------------------------------------- Iteration      1(   9)  ---------------------------------------


    POTLOK:  cpu time    0.9490: real time    0.9608
    SETDIJ:  cpu time    0.0092: real time    0.0092
     EDDAV:  cpu time   89.2758: real time   89.4995
 BZINTS: Fermi energy: -4.174376;124.000000 electrons
         Band energy:***********;  BLOECHL correction:  0.000000
       DOS:  cpu time    0.0028: real time    0.0028
    CHARGE:  cpu time    6.2303: real time    6.2451
    MIXING:  cpu time    0.0290: real time    0.0291
    --------------------------------------------
      LOOP:  cpu time   96.4961: real time   96.7465

 eigenvalue-minimisations  :  5772
 total energy-change (2. order) :-0.9322195E+01  (-0.3357124E+00)
 number of electron     123.9999996 magnetization      26.2515597
 augmentation part        2.9705172 magnetization      24.2245819

 Broyden mixing:
  rms(total) = 0.72232E+00    rms(broyden)= 0.72232E+00
  rms(prec ) = 0.72344E+00
  weight for this iteration     100.00

 eigenvalues of (default mixing * dielectric matrix)
  average eigenvalue GAMMA=   1.2990
  2.3566  1.3458  0.7857  0.7080

 Free energy of the ion-electron system (eV)
  ---------------------------------------------------
  alpha Z        PSCENC =        18.93414581
  Ewald energy   TEWEN  =     61121.33006500
  -Hartree energ DENC   =    -64775.88797576
  -exchange      EXHF   =         0.00000000
  -V(xc)+E(xc)   XCENC  =       453.25381845
  PAW double counting   =     12870.46531107   -12892.21724292
  entropy T*S    EENTRO =         0.00000000
  eigenvalues    EBANDS =     -1597.50481318
  atomic energy  EATOM  =      4561.79852166
  Solvation  Ediel_sol  =         0.00000000
  ---------------------------------------------------
  free energy    TOTEN  =      -239.82816987 eV

  energy without entropy =     -239.82816987  energy(sigma->0) =     -239.82816987


--------------------------------------------------------------------------------------------------------




--------------------------------------- Iteration      1(  10)  ---------------------------------------


    POTLOK:  cpu time    0.9729: real time    0.9826
    SETDIJ:  cpu time    0.0094: real time    0.0094
     EDDAV:  cpu time   82.8204: real time   83.0218
 BZINTS: Fermi energy: -3.869922;124.000000 electrons
         Band energy:***********;  BLOECHL correction:  0.000000
       DOS:  cpu time    0.0025: real time    0.0025
    CHARGE:  cpu time    6.2393: real time    6.2541
    MIXING:  cpu time    0.0297: real time    0.0298
    --------------------------------------------
      LOOP:  cpu time   90.0742: real time   90.3002

 eigenvalue-minimisations  :  5280
 total energy-change (2. order) :-0.1159173E+02  (-0.4831445E+00)
 number of electron     123.9999996 magnetization      24.7788647
 augmentation part        2.9573031 magnetization      22.7809590

 Broyden mixing:
  rms(total) = 0.58273E+00    rms(broyden)= 0.58273E+00
  rms(prec ) = 0.58325E+00
  weight for this iteration     100.00

 eigenvalues of (default mixing * dielectric matrix)
  average eigenvalue GAMMA=   1.3999
  2.6892  2.0614  0.8564  0.7533  0.6393

 Free energy of the ion-electron system (eV)
  ---------------------------------------------------
  alpha Z        PSCENC =        18.93414581
  Ewald energy   TEWEN  =     61121.33006500
  -Hartree energ DENC   =    -64804.30144078
  -exchange      EXHF   =         0.00000000
  -V(xc)+E(xc)   XCENC  =       445.98119538
  PAW double counting   =     13423.25218177   -13444.52484276
  entropy T*S    EENTRO =         0.00000000
  eigenvalues    EBANDS =     -1573.88972098
  atomic energy  EATOM  =      4561.79852166
  Solvation  Ediel_sol  =         0.00000000
  ---------------------------------------------------
  free energy    TOTEN  =      -251.41989490 eV

  energy without entropy =     -251.41989490  energy(sigma->0) =     -251.41989490


--------------------------------------------------------------------------------------------------------




--------------------------------------- Iteration      1(  11)  ---------------------------------------


    POTLOK:  cpu time    0.9690: real time    0.9796
    SETDIJ:  cpu time    0.0094: real time    0.0095
     EDDAV:  cpu time   89.1548: real time   89.3689
 BZINTS: Fermi energy: -3.553227;124.000000 electrons
         Band energy:***********;  BLOECHL correction:  0.000000
       DOS:  cpu time    0.0029: real time    0.0029
    CHARGE:  cpu time    4.5583: real time    4.5691
    MIXING:  cpu time    0.0294: real time    0.0295
    --------------------------------------------
      LOOP:  cpu time   94.7239: real time   94.9596

 eigenvalue-minimisations  :  5364
 total energy-change (2. order) :-0.9878442E+01  (-0.4428569E+00)
 number of electron     123.9999996 magnetization      23.2287726
 augmentation part        2.9473611 magnetization      21.2588409

 Broyden mixing:
  rms(total) = 0.48555E+00    rms(broyden)= 0.48555E+00
  rms(prec ) = 0.48585E+00
  weight for this iteration     100.00

 eigenvalues of (default mixing * dielectric matrix)
  average eigenvalue GAMMA=   1.4668
  3.1347  2.3634  1.0474  0.9325  0.6980  0.6246

 Free energy of the ion-electron system (eV)
  ---------------------------------------------------
  alpha Z        PSCENC =        18.93414581
  Ewald energy   TEWEN  =     61121.33006500
  -Hartree energ DENC   =    -64824.05500005
  -exchange      EXHF   =         0.00000000
  -V(xc)+E(xc)   XCENC  =       439.36924178
  PAW double counting   =     13536.92436041   -13557.87545919
  entropy T*S    EENTRO =         0.00000000
  eigenvalues    EBANDS =     -1557.72421200
  atomic energy  EATOM  =      4561.79852166
  Solvation  Ediel_sol  =         0.00000000
  ---------------------------------------------------
  free energy    TOTEN  =      -261.29833659 eV

  energy without entropy =     -261.29833659  energy(sigma->0) =     -261.29833659


--------------------------------------------------------------------------------------------------------




--------------------------------------- Iteration      1(  12)  ---------------------------------------


    POTLOK:  cpu time    0.9725: real time    0.9831
    SETDIJ:  cpu time    0.0091: real time    0.0091
     EDDAV:  cpu time   88.0239: real time   88.2373
 BZINTS: Fermi energy: -3.452318;124.000000 electrons
         Band energy:***********;  BLOECHL correction:  0.000000
       DOS:  cpu time    0.0025: real time    0.0025
    CHARGE:  cpu time    4.5640: real time    4.5749
    MIXING:  cpu time    0.0302: real time    0.0303
    --------------------------------------------
      LOOP:  cpu time   93.6022: real time   93.8373

 eigenvalue-minimisations  :  5376
 total energy-change (2. order) :-0.6585489E+01  (-0.2775479E+00)
 number of electron     123.9999996 magnetization      20.1402177
 augmentation part        2.9377004 magnetization      18.1943876

 Broyden mixing:
  rms(total) = 0.40351E+00    rms(broyden)= 0.40351E+00
  rms(prec ) = 0.40376E+00
  weight for this iteration     100.00

 eigenvalues of (default mixing * dielectric matrix)
  average eigenvalue GAMMA=   1.7835
  5.0761  2.4902  1.8110  0.9580  0.8014  0.7389  0.6086

 Free energy of the ion-electron system (eV)
  ---------------------------------------------------
  alpha Z        PSCENC =        18.93414581
  Ewald energy   TEWEN  =     61121.33006500
  -Hartree energ DENC   =    -64836.05695252
  -exchange      EXHF   =         0.00000000
  -V(xc)+E(xc)   XCENC  =       434.65982100
  PAW double counting   =     13317.10884150   -13338.00534548
  entropy T*S    EENTRO =         0.00000000
  eigenvalues    EBANDS =     -1547.65292300
  atomic energy  EATOM  =      4561.79852166
  Solvation  Ediel_sol  =         0.00000000
  ---------------------------------------------------
  free energy    TOTEN  =      -267.88382603 eV

  energy without entropy =     -267.88382603  energy(sigma->0) =     -267.88382603


--------------------------------------------------------------------------------------------------------




--------------------------------------- Iteration      1(  13)  ---------------------------------------


    POTLOK:  cpu time    0.9732: real time    0.9848
    SETDIJ:  cpu time    0.0093: real time    0.0093
     EDDAV:  cpu time   85.4383: real time   85.6450
 BZINTS: Fermi energy: -3.401175;124.000000 electrons
         Band energy:***********;  BLOECHL correction: -0.007920
       DOS:  cpu time    0.0128: real time    0.0128
    CHARGE:  cpu time    4.6383: real time    4.6493
    MIXING:  cpu time    0.0316: real time    0.0317
    --------------------------------------------
      LOOP:  cpu time   91.1034: real time   91.3329

 eigenvalue-minimisations  :  5304
 total energy-change (2. order) :-0.6516654E+01  (-0.4191186E+00)
 number of electron     123.9999996 magnetization      19.3092425
 augmentation part        2.9270750 magnetization      17.8797561

 Broyden mixing:
  rms(total) = 0.33629E+00    rms(broyden)= 0.33629E+00
  rms(prec ) = 0.33718E+00
  weight for this iteration     100.00

 eigenvalues of (default mixing * dielectric matrix)
  average eigenvalue GAMMA=   1.8083
  6.3665  2.4773  1.9797  0.9562  0.9008  0.6484  0.6484  0.4894

 Free energy of the ion-electron system (eV)
  ---------------------------------------------------
  alpha Z        PSCENC =        18.93414581
  Ewald energy   TEWEN  =     61121.33006500
  -Hartree energ DENC   =    -64849.34137120
  -exchange      EXHF   =         0.00000000
  -V(xc)+E(xc)   XCENC  =       429.65162285
  PAW double counting   =     12817.63384184   -12838.61595674
  entropy T*S    EENTRO =         0.00000000
  eigenvalues    EBANDS =     -1535.79134966
  atomic energy  EATOM  =      4561.79852166
  Solvation  Ediel_sol  =         0.00000000
  ---------------------------------------------------
  free energy    TOTEN  =      -274.40048045 eV

  energy without entropy =     -274.40048045  energy(sigma->0) =     -274.40048045


--------------------------------------------------------------------------------------------------------




--------------------------------------- Iteration      1(  14)  ---------------------------------------


    POTLOK:  cpu time    0.9725: real time    0.9806
    SETDIJ:  cpu time    0.0091: real time    0.0091
     EDDAV:  cpu time   88.8280: real time   89.0429
 BZINTS: Fermi energy: -3.420311;124.000000 electrons
         Band energy:***********;  BLOECHL correction: -0.008811
       DOS:  cpu time    0.0126: real time    0.0127
    CHARGE:  cpu time    4.5729: real time    4.5837
    MIXING:  cpu time    0.0312: real time    0.0312
    --------------------------------------------
      LOOP:  cpu time   94.4262: real time   94.6602

 eigenvalue-minimisations  :  5700
 total energy-change (2. order) :-0.5303221E+00  (-0.2104774E-01)
 number of electron     123.9999996 magnetization      17.8028656
 augmentation part        2.9217591 magnetization      16.4794847

 Broyden mixing:
  rms(total) = 0.30357E+00    rms(broyden)= 0.30357E+00
  rms(prec ) = 0.30415E+00
  weight for this iteration     100.00

 eigenvalues of (default mixing * dielectric matrix)
  average eigenvalue GAMMA=   1.9428
  7.9926  2.4619  1.9732  1.0264  1.0264  0.8022  0.8022  0.7970  0.6033

 Free energy of the ion-electron system (eV)
  ---------------------------------------------------
  alpha Z        PSCENC =        18.93414581
  Ewald energy   TEWEN  =     61121.33006500
  -Hartree energ DENC   =    -64850.06253791
  -exchange      EXHF   =         0.00000000
  -V(xc)+E(xc)   XCENC  =       429.17422435
  PAW double counting   =     12785.95628306   -12806.95506648
  entropy T*S    EENTRO =         0.00000000
  eigenvalues    EBANDS =     -1535.10643799
  atomic energy  EATOM  =      4561.79852166
  Solvation  Ediel_sol  =         0.00000000
  ---------------------------------------------------
  free energy    TOTEN  =      -274.93080252 eV

  energy without entropy =     -274.93080252  energy(sigma->0) =     -274.93080252


--------------------------------------------------------------------------------------------------------




--------------------------------------- Iteration      1(  15)  ---------------------------------------


    POTLOK:  cpu time    0.9586: real time    0.9703
    SETDIJ:  cpu time    0.0089: real time    0.0089
     EDDAV:  cpu time   84.1810: real time   84.3834
 BZINTS: Fermi energy: -3.491689;124.000000 electrons
         Band energy:***********;  BLOECHL correction: -0.010396
       DOS:  cpu time    0.0134: real time    0.0134
    CHARGE:  cpu time    4.5806: real time    4.5916
    MIXING:  cpu time    0.0319: real time    0.0320
    --------------------------------------------
      LOOP:  cpu time   89.7743: real time   89.9995

 eigenvalue-minimisations  :  5352
 total energy-change (2. order) :-0.8062391E+00  (-0.2281654E-01)
 number of electron     123.9999996 magnetization      15.2733487
 augmentation part        2.9208517 magnetization      14.1343810

 Broyden mixing:
  rms(total) = 0.27084E+00    rms(broyden)= 0.27084E+00
  rms(prec ) = 0.27122E+00
  weight for this iteration     100.00

 eigenvalues of (default mixing * dielectric matrix)
  average eigenvalue GAMMA=   2.1135
  9.5364  2.4016  2.4016  2.0363  1.0907  0.8938  0.7242  0.7242  0.7258  0.6006

 Free energy of the ion-electron system (eV)
  ---------------------------------------------------
  alpha Z        PSCENC =        18.93414581
  Ewald energy   TEWEN  =     61121.33006500
  -Hartree energ DENC   =    -64844.07251976
  -exchange      EXHF   =         0.00000000
  -V(xc)+E(xc)   XCENC  =       428.23720759
  PAW double counting   =     12778.43633791   -12799.43362181
  entropy T*S    EENTRO =         0.00000000
  eigenvalues    EBANDS =     -1540.96717806
  atomic energy  EATOM  =      4561.79852166
  Solvation  Ediel_sol  =         0.00000000
  ---------------------------------------------------
  free energy    TOTEN  =      -275.73704166 eV

  energy without entropy =     -275.73704166  energy(sigma->0) =     -275.73704166


--------------------------------------------------------------------------------------------------------




--------------------------------------- Iteration      1(  16)  ---------------------------------------


    POTLOK:  cpu time    0.9578: real time    0.9690
    SETDIJ:  cpu time    0.0086: real time    0.0086
     EDDAV:  cpu time   95.0597: real time   95.2864
 BZINTS: Fermi energy: -3.653683;124.000000 electrons
         Band energy:***********;  BLOECHL correction: -0.017548
       DOS:  cpu time    0.0308: real time    0.0309
    CHARGE:  cpu time    6.6985: real time    6.7145
    MIXING:  cpu time    0.0278: real time    0.0278
    --------------------------------------------
      LOOP:  cpu time  102.7832: real time  103.0373

 eigenvalue-minimisations  :  5400
 total energy-change (2. order) :-0.6216603E+00  (-0.3342966E-01)
 number of electron     123.9999996 magnetization      14.7565790
 augmentation part        2.9169928 magnetization      13.8841467

 Broyden mixing:
  rms(total) = 0.25686E+00    rms(broyden)= 0.25686E+00
  rms(prec ) = 0.25764E+00
  weight for this iteration     100.00

 eigenvalues of (default mixing * dielectric matrix)
  average eigenvalue GAMMA=   2.0232
 10.0649  2.4297  2.4297  1.7180  1.3194  0.8484  0.8484  0.7257  0.7257  0.5984
  0.5471

 Free energy of the ion-electron system (eV)
  ---------------------------------------------------
  alpha Z        PSCENC =        18.93414581
  Ewald energy   TEWEN  =     61121.33006500
  -Hartree energ DENC   =    -64826.59908764
  -exchange      EXHF   =         0.00000000
  -V(xc)+E(xc)   XCENC  =       427.33453169
  PAW double counting   =     12841.19489604   -12862.21911317
  entropy T*S    EENTRO =         0.00000000
  eigenvalues    EBANDS =     -1558.13266130
  atomic energy  EATOM  =      4561.79852166
  Solvation  Ediel_sol  =         0.00000000
  ---------------------------------------------------
  free energy    TOTEN  =      -276.35870191 eV

  energy without entropy =     -276.35870191  energy(sigma->0) =     -276.35870191


--------------------------------------------------------------------------------------------------------




--------------------------------------- Iteration      1(  17)  ---------------------------------------


    POTLOK:  cpu time    1.0202: real time    1.0323
    SETDIJ:  cpu time    0.0090: real time    0.0091
     EDDAV:  cpu time  111.4048: real time  111.6714
 BZINTS: Fermi energy: -3.664886;124.000000 electrons
         Band energy:***********;  BLOECHL correction: -0.016996
       DOS:  cpu time    0.0369: real time    0.0369
    CHARGE:  cpu time    6.5085: real time    6.5240
    MIXING:  cpu time    0.0279: real time    0.0279
    --------------------------------------------
      LOOP:  cpu time  119.0073: real time  119.3017

 eigenvalue-minimisations  :  5724
 total energy-change (2. order) :-0.1886635E+00  (-0.5564615E-02)
 number of electron     123.9999996 magnetization      12.6660978
 augmentation part        2.9171467 magnetization      11.8857543

 Broyden mixing:
  rms(total) = 0.23083E+00    rms(broyden)= 0.23083E+00
  rms(prec ) = 0.23109E+00
  weight for this iteration     100.00

 eigenvalues of (default mixing * dielectric matrix)
  average eigenvalue GAMMA=   2.0659
 10.9596  2.6982  2.6982  1.8223  1.0994  1.0994  0.8606  0.8606  0.8042  0.6877
  0.6217  0.5789

 Free energy of the ion-electron system (eV)
  ---------------------------------------------------
  alpha Z        PSCENC =        18.93414581
  Ewald energy   TEWEN  =     61121.33006500
  -Hartree energ DENC   =    -64823.99818157
  -exchange      EXHF   =         0.00000000
  -V(xc)+E(xc)   XCENC  =       427.15345285
  PAW double counting   =     12827.69690533   -12848.74015756
  entropy T*S    EENTRO =         0.00000000
  eigenvalues    EBANDS =     -1560.72211696
  atomic energy  EATOM  =      4561.79852166
  Solvation  Ediel_sol  =         0.00000000
  ---------------------------------------------------
  free energy    TOTEN  =      -276.54736545 eV

  energy without entropy =     -276.54736545  energy(sigma->0) =     -276.54736545


--------------------------------------------------------------------------------------------------------




--------------------------------------- Iteration      1(  18)  ---------------------------------------


    POTLOK:  cpu time    0.9930: real time    1.0037
    SETDIJ:  cpu time    0.0087: real time    0.0087
     EDDAV:  cpu time  102.5349: real time  102.7839
 BZINTS: Fermi energy: -3.766002;124.000000 electrons
         Band energy:***********;  BLOECHL correction: -0.017597
       DOS:  cpu time    0.0341: real time    0.0342
    CHARGE:  cpu time    6.1310: real time    6.1456
    MIXING:  cpu time    0.0279: real time    0.0280
    --------------------------------------------
      LOOP:  cpu time  109.7296: real time  110.0041

 eigenvalue-minimisations  :  5616
 total energy-change (2. order) :-0.1157997E+00  (-0.9006818E-02)
 number of electron     123.9999996 magnetization       9.3683583
 augmentation part        2.9193682 magnetization       8.7891369

 Broyden mixing:
  rms(total) = 0.20023E+00    rms(broyden)= 0.20023E+00
  rms(prec ) = 0.20039E+00
  weight for this iteration     100.00

 eigenvalues of (default mixing * dielectric matrix)
  average eigenvalue GAMMA=   2.1895
 12.2344  3.8103  2.6238  1.9797  1.3332  1.3332  0.8600  0.8600  0.8127  0.7151
  0.7151  0.5723  0.6132

 Free energy of the ion-electron system (eV)
  ---------------------------------------------------
  alpha Z        PSCENC =        18.93414581
  Ewald energy   TEWEN  =     61121.33006500
  -Hartree energ DENC   =    -64810.19738229
  -exchange      EXHF   =         0.00000000
  -V(xc)+E(xc)   XCENC  =       426.89804435
  PAW double counting   =     12847.97841174   -12869.02436819
  entropy T*S    EENTRO =         0.00000000
  eigenvalues    EBANDS =     -1574.38060317
  atomic energy  EATOM  =      4561.79852166
  Solvation  Ediel_sol  =         0.00000000
  ---------------------------------------------------
  free energy    TOTEN  =      -276.66316510 eV

  energy without entropy =     -276.66316510  energy(sigma->0) =     -276.66316510


--------------------------------------------------------------------------------------------------------




--------------------------------------- Iteration      1(  19)  ---------------------------------------


    POTLOK:  cpu time    0.9891: real time    1.0009
    SETDIJ:  cpu time    0.0093: real time    0.0093
     EDDAV:  cpu time   98.7307: real time   98.9698
 BZINTS: Fermi energy: -3.966797;124.000000 electrons
         Band energy:***********;  BLOECHL correction: -0.019724
       DOS:  cpu time    0.0343: real time    0.0344
    CHARGE:  cpu time    6.1565: real time    6.1712
    MIXING:  cpu time    0.0273: real time    0.0274
    --------------------------------------------
      LOOP:  cpu time  105.9472: real time  106.2130

 eigenvalue-minimisations  :  5424
 total energy-change (2. order) : 0.1204444E+00  (-0.8486892E-02)
 number of electron     123.9999996 magnetization       6.9493843
 augmentation part        2.9201649 magnetization       6.4428664

 Broyden mixing:
  rms(total) = 0.17147E+00    rms(broyden)= 0.17147E+00
  rms(prec ) = 0.17188E+00
  weight for this iteration     100.00

 eigenvalues of (default mixing * dielectric matrix)
  average eigenvalue GAMMA=   2.2015
 12.8129  4.4663  2.3784  2.0996  1.5638  1.5638  0.8503  0.8503  0.8445  0.8445
  0.6790  0.6349  0.6349  0.5972

 Free energy of the ion-electron system (eV)
  ---------------------------------------------------
  alpha Z        PSCENC =        18.93414581
  Ewald energy   TEWEN  =     61121.33006500
  -Hartree energ DENC   =    -64788.47872862
  -exchange      EXHF   =         0.00000000
  -V(xc)+E(xc)   XCENC  =       426.81065482
  PAW double counting   =     12903.06006161   -12924.10084859
  entropy T*S    EENTRO =         0.00000000
  eigenvalues    EBANDS =     -1595.89659241
  atomic energy  EATOM  =      4561.79852166
  Solvation  Ediel_sol  =         0.00000000
  ---------------------------------------------------
  free energy    TOTEN  =      -276.54272073 eV

  energy without entropy =     -276.54272073  energy(sigma->0) =     -276.54272073


--------------------------------------------------------------------------------------------------------




--------------------------------------- Iteration      1(  20)  ---------------------------------------


    POTLOK:  cpu time    0.9824: real time    0.9930
    SETDIJ:  cpu time    0.0091: real time    0.0092
     EDDAV:  cpu time   95.1572: real time   95.3888
 BZINTS: Fermi energy: -4.075962;124.000000 electrons
         Band energy:***********;  BLOECHL correction: -0.020129
       DOS:  cpu time    0.0336: real time    0.0337
    CHARGE:  cpu time    6.0286: real time    6.0430
    MIXING:  cpu time    0.0300: real time    0.0301
    --------------------------------------------
      LOOP:  cpu time  102.2410: real time  102.4978

 eigenvalue-minimisations  :  5388
 total energy-change (2. order) :-0.3730928E+00  (-0.3905874E-02)
 number of electron     123.9999996 magnetization       3.5826118
 augmentation part        2.9206455 magnetization       2.9618235

 Broyden mixing:
  rms(total) = 0.12719E+00    rms(broyden)= 0.12719E+00
  rms(prec ) = 0.12763E+00
  weight for this iteration     100.00

 eigenvalues of (default mixing * dielectric matrix)
  average eigenvalue GAMMA=   2.5143
 14.9936  7.0507  2.6399  2.6399  1.6863  1.3799  1.3208  0.9688  0.8766  0.8766
  0.7084  0.7084  0.5847  0.6401  0.6401

 Free energy of the ion-electron system (eV)
  ---------------------------------------------------
  alpha Z        PSCENC =        18.93414581
  Ewald energy   TEWEN  =     61121.33006500
  -Hartree energ DENC   =    -64774.75262425
  -exchange      EXHF   =         0.00000000
  -V(xc)+E(xc)   XCENC  =       426.43302228
  PAW double counting   =     12887.54571567   -12908.59163416
  entropy T*S    EENTRO =         0.00000000
  eigenvalues    EBANDS =     -1609.61302552
  atomic energy  EATOM  =      4561.79852166
  Solvation  Ediel_sol  =         0.00000000
  ---------------------------------------------------
  free energy    TOTEN  =      -276.91581352 eV

  energy without entropy =     -276.91581352  energy(sigma->0) =     -276.91581352


--------------------------------------------------------------------------------------------------------




--------------------------------------- Iteration      1(  21)  ---------------------------------------


    POTLOK:  cpu time    0.9905: real time    1.0026
    SETDIJ:  cpu time    0.0087: real time    0.0087
     EDDAV:  cpu time  100.3400: real time  100.5849
 BZINTS: Fermi energy: -4.154170;124.000000 electrons
         Band energy:***********;  BLOECHL correction: -0.016246
       DOS:  cpu time    0.0320: real time    0.0321
    CHARGE:  cpu time    5.9856: real time    5.9998
    MIXING:  cpu time    0.0340: real time    0.0341
    --------------------------------------------
      LOOP:  cpu time  107.3909: real time  107.6622

 eigenvalue-minimisations  :  5988
 total energy-change (2. order) :-0.1216981E+01  (-0.9454962E-02)
 number of electron     123.9999996 magnetization       2.0465731
 augmentation part        2.9214372 magnetization       1.3360903

 Broyden mixing:
  rms(total) = 0.75919E-01    rms(broyden)= 0.75918E-01
  rms(prec ) = 0.76793E-01
  weight for this iteration     100.00

 eigenvalues of (default mixing * dielectric matrix)
  average eigenvalue GAMMA=   2.9534
 21.4086  8.9574  2.7356  2.7356  1.8260  1.4288  1.4288  0.9057  0.9057  0.8206
  0.8206  0.7235  0.6775  0.6775  0.6204  0.5816

 Free energy of the ion-electron system (eV)
  ---------------------------------------------------
  alpha Z        PSCENC =        18.93414581
  Ewald energy   TEWEN  =     61121.33006500
  -Hartree energ DENC   =    -64761.16907484
  -exchange      EXHF   =         0.00000000
  -V(xc)+E(xc)   XCENC  =       425.29270628
  PAW double counting   =     12867.32372966   -12888.35817064
  entropy T*S    EENTRO =         0.00000000
  eigenvalues    EBANDS =     -1623.28471710
  atomic energy  EATOM  =      4561.79852166
  Solvation  Ediel_sol  =         0.00000000
  ---------------------------------------------------
  free energy    TOTEN  =      -278.13279416 eV

  energy without entropy =     -278.13279416  energy(sigma->0) =     -278.13279416


--------------------------------------------------------------------------------------------------------




--------------------------------------- Iteration      1(  22)  ---------------------------------------


    POTLOK:  cpu time    0.9841: real time    0.9954
    SETDIJ:  cpu time    0.0093: real time    0.0093
     EDDAV:  cpu time   93.1178: real time   93.3413
 BZINTS: Fermi energy: -4.156125;124.000000 electrons
         Band energy:***********;  BLOECHL correction: -0.017733
       DOS:  cpu time    0.0306: real time    0.0306
    CHARGE:  cpu time    5.8575: real time    5.8715
    MIXING:  cpu time    0.0348: real time    0.0349
    --------------------------------------------
      LOOP:  cpu time  100.0341: real time  100.2830

 eigenvalue-minimisations  :  5568
 total energy-change (2. order) :-0.3428684E-01  (-0.1682843E-02)
 number of electron     123.9999996 magnetization       1.1947900
 augmentation part        2.9209237 magnetization       0.4990886

 Broyden mixing:
  rms(total) = 0.53498E-01    rms(broyden)= 0.53497E-01
  rms(prec ) = 0.54452E-01
  weight for this iteration     100.00

 eigenvalues of (default mixing * dielectric matrix)
  average eigenvalue GAMMA=   3.4004
 29.1437  9.8940  3.0691  2.7374  2.1253  1.5327  1.5327  0.9357  0.9357  0.9281
  0.9281  0.7527  0.7527  0.6958  0.5846  0.6293  0.6293

 Free energy of the ion-electron system (eV)
  ---------------------------------------------------
  alpha Z        PSCENC =        18.93414581
  Ewald energy   TEWEN  =     61121.33006500
  -Hartree energ DENC   =    -64761.44565712
  -exchange      EXHF   =         0.00000000
  -V(xc)+E(xc)   XCENC  =       425.32002581
  PAW double counting   =     12869.22202827   -12890.25348082
  entropy T*S    EENTRO =         0.00000000
  eigenvalues    EBANDS =     -1623.07272960
  atomic energy  EATOM  =      4561.79852166
  Solvation  Ediel_sol  =         0.00000000
  ---------------------------------------------------
  free energy    TOTEN  =      -278.16708100 eV

  energy without entropy =     -278.16708100  energy(sigma->0) =     -278.16708100


--------------------------------------------------------------------------------------------------------




--------------------------------------- Iteration      1(  23)  ---------------------------------------


    POTLOK:  cpu time    0.9733: real time    0.9845
    SETDIJ:  cpu time    0.0092: real time    0.0092
     EDDAV:  cpu time   86.1658: real time   86.3745
 BZINTS: Fermi energy: -4.117625;124.000000 electrons
         Band energy:***********;  BLOECHL correction: -0.018074
       DOS:  cpu time    0.0286: real time    0.0286
    CHARGE:  cpu time    5.7120: real time    5.7255
    MIXING:  cpu time    0.0373: real time    0.0374
    --------------------------------------------
      LOOP:  cpu time   92.9260: real time   93.1597

 eigenvalue-minimisations  :  5316
 total energy-change (2. order) :-0.1813794E-01  (-0.6972181E-03)
 number of electron     123.9999996 magnetization       0.8301488
 augmentation part        2.9199464 magnetization       0.1504646

 Broyden mixing:
  rms(total) = 0.32187E-01    rms(broyden)= 0.32187E-01
  rms(prec ) = 0.32982E-01
  weight for this iteration     100.00

 eigenvalues of (default mixing * dielectric matrix)
  average eigenvalue GAMMA=   3.7171
 35.7864 10.3724  3.7430  2.3893  2.3893  1.8048  1.3793  1.3793  0.9407  0.9407
  0.8870  0.8870  0.7437  0.7437  0.6620  0.6620  0.5800  0.6170

 Free energy of the ion-electron system (eV)
  ---------------------------------------------------
  alpha Z        PSCENC =        18.93414581
  Ewald energy   TEWEN  =     61121.33006500
  -Hartree energ DENC   =    -64767.08393004
  -exchange      EXHF   =         0.00000000
  -V(xc)+E(xc)   XCENC  =       425.35711992
  PAW double counting   =     12861.26230898   -12882.29328722
  entropy T*S    EENTRO =         0.00000000
  eigenvalues    EBANDS =     -1617.49016303
  atomic energy  EATOM  =      4561.79852166
  Solvation  Ediel_sol  =         0.00000000
  ---------------------------------------------------
  free energy    TOTEN  =      -278.18521894 eV

  energy without entropy =     -278.18521894  energy(sigma->0) =     -278.18521894


--------------------------------------------------------------------------------------------------------




--------------------------------------- Iteration      1(  24)  ---------------------------------------


    POTLOK:  cpu time    0.9630: real time    0.9746
    SETDIJ:  cpu time    0.0093: real time    0.0094
     EDDAV:  cpu time   83.5598: real time   83.7630
 BZINTS: Fermi energy: -4.080394;124.000000 electrons
         Band energy:***********;  BLOECHL correction: -0.018546
       DOS:  cpu time    0.0279: real time    0.0280
    CHARGE:  cpu time    5.6816: real time    5.6951
    MIXING:  cpu time    0.0400: real time    0.0401
    --------------------------------------------
      LOOP:  cpu time   90.2817: real time   90.5102

 eigenvalue-minimisations  :  5496
 total energy-change (2. order) :-0.3302731E-01  (-0.6282303E-03)
 number of electron     123.9999996 magnetization       0.6883125
 augmentation part        2.9194148 magnetization       0.0550295

 Broyden mixing:
  rms(total) = 0.17917E-01    rms(broyden)= 0.17917E-01
  rms(prec ) = 0.18588E-01
  weight for this iteration     100.00

 eigenvalues of (default mixing * dielectric matrix)
  average eigenvalue GAMMA=   3.8141
 39.1981 10.5461  4.2521  2.5158  2.5158  2.0932  1.4267  1.2994  0.9695  0.9695
  0.8899  0.8899  0.9341  0.7282  0.7282  0.6759  0.5830  0.6265  0.6265

 Free energy of the ion-electron system (eV)
  ---------------------------------------------------
  alpha Z        PSCENC =        18.93414581
  Ewald energy   TEWEN  =     61121.33006500
  -Hartree energ DENC   =    -64772.57729422
  -exchange      EXHF   =         0.00000000
  -V(xc)+E(xc)   XCENC  =       425.33814375
  PAW double counting   =     12861.74184369   -12882.76650147
  entropy T*S    EENTRO =         0.00000000
  eigenvalues    EBANDS =     -1612.01717046
  atomic energy  EATOM  =      4561.79852166
  Solvation  Ediel_sol  =         0.00000000
  ---------------------------------------------------
  free energy    TOTEN  =      -278.21824625 eV

  energy without entropy =     -278.21824625  energy(sigma->0) =     -278.21824625


--------------------------------------------------------------------------------------------------------




--------------------------------------- Iteration      1(  25)  ---------------------------------------


    POTLOK:  cpu time    0.9574: real time    0.9686
    SETDIJ:  cpu time    0.0088: real time    0.0088
     EDDAV:  cpu time   78.9010: real time   79.0898
 BZINTS: Fermi energy: -4.047707;124.000000 electrons
         Band energy:***********;  BLOECHL correction: -0.018622
       DOS:  cpu time    0.0269: real time    0.0269
    CHARGE:  cpu time    5.6984: real time    5.7119
    MIXING:  cpu time    0.0419: real time    0.0420
    --------------------------------------------
      LOOP:  cpu time   85.6343: real time   85.8481

 eigenvalue-minimisations  :  5400
 total energy-change (2. order) :-0.2169206E-01  (-0.3212586E-03)
 number of electron     123.9999996 magnetization       0.6381312
 augmentation part        2.9191705 magnetization       0.0353013

 Broyden mixing:
  rms(total) = 0.11015E-01    rms(broyden)= 0.11015E-01
  rms(prec ) = 0.11590E-01
  weight for this iteration     100.00

 eigenvalues of (default mixing * dielectric matrix)
  average eigenvalue GAMMA=   3.7924
 40.4834 10.6099  4.6315  2.6112  2.6112  2.2908  1.6000  1.3091  1.3091  0.9038
  0.9038  0.9388  0.9388  0.7431  0.7431  0.7204  0.6525  0.6525  0.5800  0.6144

 Free energy of the ion-electron system (eV)
  ---------------------------------------------------
  alpha Z        PSCENC =        18.93414581
  Ewald energy   TEWEN  =     61121.33006500
  -Hartree energ DENC   =    -64776.83355502
  -exchange      EXHF   =         0.00000000
  -V(xc)+E(xc)   XCENC  =       425.32920591
  PAW double counting   =     12857.52478810   -12878.54937011
  entropy T*S    EENTRO =         0.00000000
  eigenvalues    EBANDS =     -1607.77373964
  atomic energy  EATOM  =      4561.79852166
  Solvation  Ediel_sol  =         0.00000000
  ---------------------------------------------------
  free energy    TOTEN  =      -278.23993831 eV

  energy without entropy =     -278.23993831  energy(sigma->0) =     -278.23993831


--------------------------------------------------------------------------------------------------------




--------------------------------------- Iteration      1(  26)  ---------------------------------------


    POTLOK:  cpu time    0.9679: real time    0.9796
    SETDIJ:  cpu time    0.0098: real time    0.0098
     EDDAV:  cpu time   78.5475: real time   78.7350
 BZINTS: Fermi energy: -4.022248;124.000000 electrons
         Band energy:***********;  BLOECHL correction: -0.018753
       DOS:  cpu time    0.0268: real time    0.0268
    CHARGE:  cpu time    5.6799: real time    5.6934
    MIXING:  cpu time    0.0440: real time    0.0441
    --------------------------------------------
      LOOP:  cpu time   85.2757: real time   85.4887

 eigenvalue-minimisations  :  5364
 total energy-change (2. order) :-0.4449764E-01  (-0.1324558E-03)
 number of electron     123.9999996 magnetization       0.6293898
 augmentation part        2.9188912 magnetization       0.0328317

 Broyden mixing:
  rms(total) = 0.40845E-02    rms(broyden)= 0.40844E-02
  rms(prec ) = 0.47612E-02
  weight for this iteration     100.00

 eigenvalues of (default mixing * dielectric matrix)
  average eigenvalue GAMMA=   3.7251
 41.0060 10.6793  4.9531  2.6448  2.6448  2.5086  1.8102  1.3892  1.3892  0.9117
  0.9117  0.9576  0.8715  0.8715  0.7518  0.7518  0.5813  0.6713  0.6713  0.6230
  0.6282

 Free energy of the ion-electron system (eV)
  ---------------------------------------------------
  alpha Z        PSCENC =        18.93414581
  Ewald energy   TEWEN  =     61121.33006500
  -Hartree energ DENC   =    -64780.18079771
  -exchange      EXHF   =         0.00000000
  -V(xc)+E(xc)   XCENC  =       425.29825922
  PAW double counting   =     12855.19904571   -12876.22429008
  entropy T*S    EENTRO =         0.00000000
  eigenvalues    EBANDS =     -1604.43938555
  atomic energy  EATOM  =      4561.79852166
  Solvation  Ediel_sol  =         0.00000000
  ---------------------------------------------------
  free energy    TOTEN  =      -278.28443594 eV

  energy without entropy =     -278.28443594  energy(sigma->0) =     -278.28443594


--------------------------------------------------------------------------------------------------------




--------------------------------------- Iteration      1(  27)  ---------------------------------------


    POTLOK:  cpu time    0.9742: real time    0.9849
    SETDIJ:  cpu time    0.0092: real time    0.0092
     EDDAV:  cpu time   81.9148: real time   82.1136
 BZINTS: Fermi energy: -4.005027;124.000000 electrons
         Band energy:***********;  BLOECHL correction: -0.018790
       DOS:  cpu time    0.0267: real time    0.0268
    CHARGE:  cpu time    5.6920: real time    5.7055
    MIXING:  cpu time    0.0473: real time    0.0474
    --------------------------------------------
      LOOP:  cpu time   88.6642: real time   88.8874

 eigenvalue-minimisations  :  5676
 total energy-change (2. order) :-0.8490486E-02  (-0.3609176E-04)
 number of electron     123.9999996 magnetization       0.6255315
 augmentation part        2.9186818 magnetization       0.0280179

 Broyden mixing:
  rms(total) = 0.23543E-02    rms(broyden)= 0.23543E-02
  rms(prec ) = 0.29916E-02
  weight for this iteration     100.00

 eigenvalues of (default mixing * dielectric matrix)
  average eigenvalue GAMMA=   3.6240
 41.1201 10.6923  5.0844  2.7037  2.7037  2.5787  1.8668  1.4169  1.4169  1.0751
  0.9082  0.9082  0.9061  0.9061  0.7790  0.7790  0.7158  0.5814  0.6613  0.6613
  0.6119  0.6504

 Free energy of the ion-electron system (eV)
  ---------------------------------------------------
  alpha Z        PSCENC =        18.93414581
  Ewald energy   TEWEN  =     61121.33006500
  -Hartree energ DENC   =    -64782.39102413
  -exchange      EXHF   =         0.00000000
  -V(xc)+E(xc)   XCENC  =       425.30267297
  PAW double counting   =     12854.78421818   -12875.80991236
  entropy T*S    EENTRO =         0.00000000
  eigenvalues    EBANDS =     -1602.24161356
  atomic energy  EATOM  =      4561.79852166
  Solvation  Ediel_sol  =         0.00000000
  ---------------------------------------------------
  free energy    TOTEN  =      -278.29292643 eV

  energy without entropy =     -278.29292643  energy(sigma->0) =     -278.29292643


--------------------------------------------------------------------------------------------------------




--------------------------------------- Iteration      1(  28)  ---------------------------------------


    POTLOK:  cpu time    0.9659: real time    0.9774
    SETDIJ:  cpu time    0.0091: real time    0.0091
     EDDAV:  cpu time   77.3572: real time   77.5466
 BZINTS: Fermi energy: -3.992907;124.000000 electrons
         Band energy:***********;  BLOECHL correction: -0.018777
       DOS:  cpu time    0.0241: real time    0.0242
    CHARGE:  cpu time    5.6325: real time    5.6459
    MIXING:  cpu time    0.0617: real time    0.0619
    --------------------------------------------
      LOOP:  cpu time   84.0506: real time   84.2651

 eigenvalue-minimisations  :  5352
 total energy-change (2. order) :-0.2932132E-02  (-0.1007626E-04)
 number of electron     123.9999996 magnetization       0.6217265
 augmentation part        2.9185593 magnetization       0.0260232

 Broyden mixing:
  rms(total) = 0.17737E-02    rms(broyden)= 0.17737E-02
  rms(prec ) = 0.22900E-02
  weight for this iteration     100.00

 eigenvalues of (default mixing * dielectric matrix)
  average eigenvalue GAMMA=   3.5414
 41.1596 10.6883  5.1722  2.8481  2.6618  2.6618  1.7350  1.7350  1.3655  1.3655
  1.0856  0.9062  0.9062  0.8834  0.8834  0.7916  0.7350  0.7350  0.6570  0.6570
  0.5820  0.6098  0.6260

 Free energy of the ion-electron system (eV)
  ---------------------------------------------------
  alpha Z        PSCENC =        18.93414581
  Ewald energy   TEWEN  =     61121.33006500
  -Hartree energ DENC   =    -64783.90857188
  -exchange      EXHF   =         0.00000000
  -V(xc)+E(xc)   XCENC  =       425.30739024
  PAW double counting   =     12855.24631003   -12876.27187789
  entropy T*S    EENTRO =         0.00000000
  eigenvalues    EBANDS =     -1600.73184152
  atomic energy  EATOM  =      4561.79852166
  Solvation  Ediel_sol  =         0.00000000
  ---------------------------------------------------
  free energy    TOTEN  =      -278.29585856 eV

  energy without entropy =     -278.29585856  energy(sigma->0) =     -278.29585856


--------------------------------------------------------------------------------------------------------




[...]
     56      -7.0631      1.00000
     57      -7.0166      1.00000
     58      -6.4906      1.00000
     59      -5.7473      1.00000
     60      -5.4305      1.00000
     61      -4.7507      1.00000
     62      -3.8153      0.00624
     63      -3.4167      0.00000
     64      -3.0349      0.00000
     65      -3.0177      0.00000
     66      -2.2563      0.00000
     67      -2.0344      0.00000
     68      -1.4709      0.00000
     69      -0.6425      0.00000
     70      -0.2637      0.00000
     71       0.1435      0.00000
     72       0.2058      0.00000
     73       0.2251      0.00000
     74       0.3892      0.00000
     75       0.6082      0.00000
     76       0.7482      0.00000
     77       0.9406      0.00000
     78       0.9536      0.00000
     79       1.1802      0.00000
     80       1.1819      0.00000
     81       1.2632      0.00000
     82       1.2648      0.00000
     83       1.3401      0.00000
     84       1.3428      0.00000
     85       1.3505      0.00000
     86       1.5301      0.00000
     87       1.5361      0.00000
     88       1.5983      0.00000
     89       1.6418      0.00000
     90       1.6554      0.00000
     91       1.6587      0.00000
     92       1.6866      0.00000
     93       1.7580      0.00000
     94       1.8120      0.00000
     95       1.9531      0.00000
     96       1.9567      0.00000


--------------------------------------------------------------------------------------------------------


 soft charge-density along one line, spin component           1
         0         1         2         3         4         5         6         7         8         9
 total charge-density along one line
 
 soft charge-density along one line, spin component           2
         0         1         2         3         4         5         6         7         8         9
 total charge-density along one line
 
 pseudopotential strength for first ion, spin component:           1
 10.284  13.678  -0.000  -0.000  -0.000   0.000   0.000   0.001
 13.678  18.190  -0.000  -0.000  -0.000   0.000   0.000   0.001
 -0.000  -0.000  -4.407   0.000   0.000   8.621  -0.000  -0.000
 -0.000  -0.000   0.000  -4.399  -0.000  -0.000   8.609   0.000
 -0.000  -0.000   0.000  -0.000  -4.407  -0.000   0.000   8.621
  0.000   0.000   8.621  -0.000  -0.000 -19.003   0.000   0.001
  0.000   0.000  -0.000   8.609   0.000   0.000 -18.990  -0.000
  0.001   0.001  -0.000   0.000   8.621   0.001  -0.000 -19.002
 pseudopotential strength for first ion, spin component:           2
 10.285  13.679  -0.000   0.000  -0.000   0.001  -0.000   0.000
 13.679  18.192  -0.000   0.000  -0.000   0.001  -0.000   0.001
 -0.000  -0.000  -4.408   0.000   0.000   8.621  -0.000  -0.000
  0.000   0.000   0.000  -4.400   0.000  -0.000   8.611  -0.000
 -0.000  -0.000   0.000   0.000  -4.407  -0.000  -0.000   8.620
  0.001   0.001   8.621  -0.000  -0.000 -19.003   0.000   0.001
 -0.000  -0.000  -0.000   8.611  -0.000   0.000 -18.992   0.000
  0.000   0.001  -0.000  -0.000   8.620   0.001   0.000 -19.001
 total augmentation occupancy for first ion, spin component:           1
  8.042  -3.559   0.023  -0.000   0.028   0.003  -0.000   0.004
 -3.559   1.633  -0.010   0.000  -0.012  -0.002   0.000  -0.002
  0.023  -0.010   1.807  -0.000   0.020   0.170  -0.000   0.001
 -0.000   0.000  -0.000   1.203   0.000  -0.000   0.072   0.000
  0.028  -0.012   0.020   0.000   1.833   0.001   0.000   0.172
  0.003  -0.002   0.170  -0.000   0.001   0.017  -0.000   0.000
 -0.000   0.000  -0.000   0.072   0.000  -0.000   0.005   0.000
  0.004  -0.002   0.001   0.000   0.172   0.000   0.000   0.018
 total augmentation occupancy for first ion, spin component:           2
  0.000  -0.001  -0.001   0.000   0.001  -0.000   0.000   0.000
 -0.001   0.001   0.001  -0.000  -0.001   0.000  -0.000  -0.000
 -0.001   0.001  -0.001  -0.000  -0.000  -0.000   0.000   0.000
  0.000  -0.000  -0.000  -0.005   0.000   0.000  -0.000   0.000
  0.001  -0.001  -0.000   0.000   0.001   0.000   0.000   0.000
 -0.000   0.000  -0.000   0.000   0.000   0.000   0.000   0.000
  0.000  -0.000   0.000  -0.000   0.000   0.000   0.000  -0.000
  0.000  -0.000   0.000   0.000   0.000   0.000  -0.000   0.000


------------------------ aborting loop because EDIFF is reached ----------------------------------------


    CHARGE:  cpu time    4.4457: real time    4.4562
    FORLOC:  cpu time    0.0746: real time    0.0748
    FORNL :  cpu time   12.2487: real time   12.2778
    STRESS:  cpu time   37.5564: real time   37.6458
    FORCOR:  cpu time    0.9301: real time    0.9347
    FORHAR:  cpu time    0.1437: real time    0.1443
    MIXING:  cpu time    0.0859: real time    0.0861
    OFIELD:  cpu time    0.0001: real time    0.0001

  Hirshfeld charges:
            ion         q(e)     
   ------------------------------
      1     C           0.002
      2     C          -0.005
      3     C           0.002
      4     C          -0.005
      5     C           0.002
      6     C           0.011
      7     C          -0.002
      8     C           0.011
      9     C           0.002
     10     C          -0.003
     11     C           0.002
     12     C          -0.013
     13     C          -0.007
     14     C           0.022
     15     C          -0.007
     16     C          -0.013
     17     C           0.002
     18     C           0.010
     19     C          -0.011
     20     C           0.004
     21     C           0.003
     22     C          -0.011
     23     C           0.010
     24     C          -0.002
     25     C           0.010
     26     C          -0.006
     27     C          -0.011
     28     C          -0.007
     29     C           0.010
     30     C          -0.002
     31     C           0.002

  Atomic reference data used in the T-S method for vdW correction:
            C6at              R0at           ALPHAat      REFSTATE
            (au)              (au)            (au)                
   ---------------------------------------------------------------
   C          46.600          3.590         12.000         0

  Tkatchenko/Scheffler method for vdW energy calculation
  ---------------------------------------------------------------------------------------------

  Parameters of vdW forcefield:
            C6ts              R0ts           ALPHAts        RELVOL
            (au)              (au)            (au)                
   ---------------------------------------------------------------
   C          32.875          3.388         10.079          0.840
   C          32.841          3.387         10.074          0.839
   C          32.864          3.387         10.077          0.840
   C          32.836          3.387         10.073          0.839
   C          32.871          3.388         10.078          0.840
   C          32.966          3.389         10.093          0.841
   C          32.891          3.388         10.082          0.840
   C          32.970          3.389         10.094          0.841
   C          32.850          3.387         10.075          0.840
   C          32.790          3.386         10.066          0.839
   C          32.848          3.387         10.075          0.840
   C          33.360          3.396         10.153          0.846
   C          33.856          3.404         10.228          0.852
   C          35.562          3.432         10.483          0.874
   C          33.854          3.404         10.228          0.852
   C          33.358          3.396         10.153          0.846
   C          32.815          3.387         10.070          0.839
   C          32.930          3.389         10.087          0.841
   C          33.830          3.404         10.224          0.852
   C          35.355          3.429         10.452          0.871
   C          35.331          3.429         10.449          0.871
   C          33.822          3.404         10.223          0.852
   C          32.929          3.389         10.087          0.841
   C          32.883          3.388         10.080          0.840
   C          32.971          3.389         10.094          0.841
   C          33.770          3.403         10.215          0.851
   C          33.309          3.395         10.145          0.845
   C          33.764          3.403         10.214          0.851
   C          32.967          3.389         10.093          0.841
   C          32.882          3.388         10.080          0.840
   C          32.802          3.386         10.068          0.839

  IVDW = 202
  VDW_RADIUS =    50.000 A
  VDW_SR =     0.830
  VDW_D =     6.000
  SCSRAD =   120.000 A
  LSCSGRAD = T
  LSCALER0 = T
  Edisp (eV):   -2.52726
    FORVDW:  cpu time    9.5096: real time    9.6976

  FORCE on cell =-STRESS in cart. coord.  units (eV):
  Direction    XX          YY          ZZ          XY          YZ          ZX
  --------------------------------------------------------------------------------------
  Alpha Z    18.93415    18.93415    18.93415
  Ewald   65197.01767 65195.10680-69270.79588    -0.91457     0.18710     0.07233
  Hartree 64562.20984 64560.83992-64333.04845    -1.32084     0.18452     0.10108
  E(xc)    -459.05607  -459.07957  -476.19965    -0.02040     0.00001    -0.00015
  Local  ************************132031.07508     1.88093    -0.37011    -0.17192
  n-local  -103.63190  -104.12972  -101.27986    -0.47143     0.00077     0.00241
  augment   -11.93293   -11.92535   -10.78472     0.00558    -0.00001    -0.00004
  Kinetic  1846.49982  1849.40968  2141.90451     2.62046    -0.00205    -0.00391
  Fock        0.00000     0.00000     0.00000     0.00000     0.00000     0.00000
  vdW        -3.07168    -3.06974     0.00800     0.00219    -0.00000     0.00001
  -------------------------------------------------------------------------------------
  Total      -0.16297     1.65964    -0.18681     1.78191     0.00024    -0.00019
  in kB      -0.06262     0.63776    -0.07178     0.68475     0.00009    -0.00007
  external pressure =        0.17 kB  Pullay stress =        0.00 kB


 VOLUME and BASIS-vectors are now :
 -----------------------------------------------------------------------------
  energy-cutoff  :      850.00
  volume of cell :     4169.35
      direct lattice vectors                 reciprocal lattice vectors
     9.816206797  0.007065829  0.000009519     0.101914748 -0.058908990 -0.000000011
     4.920842279  8.513240569  0.000017268    -0.000084587  0.117512977 -0.000000173
     0.000047872  0.000073598 49.912578381    -0.000000019 -0.000000029  0.020035030

  length of vectors
     9.816209340  9.833104989 49.912578381     0.117715270  0.117513007  0.020035030


 FORCES acting on ions
    electron-ion (+dipol)            ewald-force                    non-local-force                 convergence-correction
 -----------------------------------------------------------------------------------------------
   0.363E+01 0.268E+01 0.270E-02   -.344E+01 -.253E+01 -.276E-02   -.238E+00 -.178E+00 -.333E-04   -.874E-06 -.804E-07 0.688E-09
   0.267E+01 0.589E+00 0.959E-02   -.261E+01 -.533E+00 -.981E-02   -.367E-01 -.358E-01 0.334E-03   -.899E-06 -.198E-06 0.330E-09
   0.434E+01 -.232E+01 0.817E-02   -.428E+01 0.224E+01 -.851E-02   -.167E+00 0.721E-01 0.596E-03   -.146E-05 0.963E-06 0.565E-09
   0.786E+00 -.271E+01 -.311E-02   -.786E+00 0.268E+01 0.315E-02   0.222E-01 0.800E-01 0.236E-04   -.460E-06 0.101E-05 -.174E-08
   -.602E+00 -.431E+01 -.601E-02   0.571E+00 0.406E+01 0.608E-02   0.323E-01 0.287E+00 -.428E-03   -.680E-06 0.960E-06 -.302E-08
   -.111E+02 0.547E+01 -.791E-02   0.107E+02 -.520E+01 0.800E-02   0.495E+00 -.330E+00 -.246E-03   0.228E-06 0.513E-06 -.694E-08
   -.451E+01 0.246E+01 -.285E-02   0.444E+01 -.240E+01 0.259E-02   0.833E-01 -.372E-01 0.366E-03   0.109E-05 -.834E-06 -.651E-08
   -.104E+02 0.695E+01 -.743E-02   0.991E+01 -.672E+01 0.803E-02   0.535E+00 -.274E+00 -.549E-03   0.216E-06 -.626E-06 0.276E-08
   0.447E+00 0.434E+01 -.952E-02   -.520E+00 -.424E+01 0.955E-02   -.138E-01 -.182E+00 -.149E-03   0.537E-06 -.126E-05 0.577E-08
   -.149E+01 0.821E+00 -.115E-01   0.150E+01 -.801E+00 0.118E-01   0.576E-01 -.221E-01 -.366E-03   0.835E-06 -.694E-06 0.223E-08
   -.360E+01 -.240E+01 -.935E-02   0.348E+01 0.237E+01 0.961E-02   0.148E+00 0.775E-01 -.715E-03   0.877E-06 0.138E-07 -.184E-08
   -.180E+02 -.119E+02 0.396E-01   0.177E+02 0.116E+02 -.418E-01   0.204E+00 0.213E+00 0.311E-02   0.183E-05 -.294E-06 -.912E-08
   -.287E+02 -.213E+01 0.279E-01   0.281E+02 0.155E+01 -.278E-01   0.615E+00 0.668E+00 0.473E-03   0.519E-06 0.461E-06 -.287E-08
   -.987E+02 0.567E+02 0.541E-01   0.980E+02 -.564E+02 -.606E-01   0.102E+01 -.603E+00 0.579E-02   0.275E-05 -.148E-05 0.105E-07
   -.125E+02 0.260E+02 -.524E-02   0.127E+02 -.252E+02 0.573E-02   -.276E+00 -.881E+00 -.718E-03   0.147E-06 -.271E-07 0.121E-07
   0.138E+01 0.217E+02 -.675E-02   -.127E+01 -.213E+02 0.786E-02   -.723E-01 -.296E+00 -.175E-02   0.155E-05 -.172E-05 0.147E-07
   -.298E+01 0.162E+01 0.122E-01   0.286E+01 -.154E+01 -.124E-01   0.174E+00 -.104E+00 0.202E-03   0.107E-05 -.931E-06 0.137E-08
   -.161E+01 -.116E+02 -.130E-01   0.156E+01 0.113E+02 0.134E-01   -.556E-01 0.334E+00 -.101E-03   0.883E-06 0.108E-05 0.139E-07
   -.135E+02 -.235E+02 -.616E-01   0.130E+02 0.232E+02 0.619E-01   0.643E+00 -.680E-01 -.731E-03   0.390E-05 0.823E-06 -.851E-08
   -.318E+01 -.113E+03 -.391E-01   0.281E+01 0.115E+03 0.390E-01   -.175E+00 -.149E+01 -.136E-02   0.791E-06 0.261E-05 -.604E-07
   0.967E+02 0.591E+02 -.206E+00   -.983E+02 -.596E+02 0.222E+00   0.134E+01 0.961E+00 -.170E-01   -.217E-05 -.205E-05 0.775E-07
   0.140E+02 0.232E+02 0.792E-01   -.140E+02 -.226E+02 -.819E-01   0.377E+00 -.517E+00 0.486E-02   0.131E-05 -.488E-05 0.133E-07
   0.925E+01 0.716E+01 0.301E-01   -.904E+01 -.698E+01 -.313E-01   -.303E+00 -.120E+00 0.857E-03   -.121E-05 -.204E-05 -.156E-07
   -.109E+01 -.423E+01 -.183E-03   0.111E+01 0.421E+01 0.108E-03   0.378E-02 0.428E-01 0.705E-04   -.610E-06 0.189E-05 0.158E-08
   0.407E+00 -.127E+02 0.275E-01   -.454E+00 0.123E+02 -.277E-01   0.702E-01 0.355E+00 0.125E-03   -.905E-06 0.171E-05 -.454E-09
   0.139E+02 -.250E+02 0.892E-01   -.131E+02 0.247E+02 -.909E-01   -.896E+00 0.452E-01 0.337E-02   -.316E-05 0.200E-05 -.179E-07
   0.199E+02 -.114E+02 -.278E-01   -.196E+02 0.113E+02 0.306E-01   -.360E+00 0.223E+00 -.443E-02   -.209E-05 0.156E-05 0.484E-08
   0.284E+02 0.849E+00 0.439E-01   -.278E+02 -.143E+01 -.462E-01   -.473E+00 0.735E+00 0.399E-02   -.462E-05 0.301E-05 0.266E-07
   0.111E+02 0.593E+01 0.262E-01   -.108E+02 -.574E+01 -.269E-01   -.257E+00 -.228E+00 0.787E-03   -.245E-05 0.925E-07 -.944E-09
   0.302E+01 0.284E+01 -.123E-01   -.298E+01 -.284E+01 0.128E-01   -.307E-01 -.108E-01 -.862E-03   -.230E-05 -.869E-06 -.555E-08
   -.489E+00 0.294E+00 -.155E-01   0.454E+00 -.292E+00 0.158E-01   0.414E-01 -.315E-01 -.373E-03   -.720E-06 0.136E-06 -.549E-08
 -----------------------------------------------------------------------------------------------
   -.251E+01 0.132E+01 0.493E-02   0.694E-14 -.355E-14 -.125E-14   0.251E+01 -.132E+01 -.481E-02   -.608E-05 0.837E-06 0.418E-07
 
 
 POSITION                                       TOTAL-FORCE (eV/Angst)
 -----------------------------------------------------------------------------------
      0.00366      0.00039     21.96151        -0.047038     -0.029679     -0.000102
      1.22452      0.71096     21.96151         0.022349      0.023964      0.000116
     11.04222      2.13679     21.96153        -0.112115     -0.000475      0.000261
      2.45388      2.83772     21.96154         0.022040      0.048396      0.000061
      2.46084      4.25114     21.96155         0.001348      0.032840     -0.000363
      3.69959      4.96523     21.96155         0.049051     -0.059743     -0.000161
      3.69634      6.37999     21.96155         0.004912      0.022430      0.000104
      4.92435      7.08370     21.96155         0.067840     -0.041026      0.000046
      2.45205      0.00329     21.96155        -0.086653     -0.074182     -0.000119
      3.67898      0.71152     21.96156         0.061084      0.000987     -0.000078
      3.68018      2.12901     21.96155         0.026507      0.051118     -0.000460
      4.89561      2.83057     21.96147        -0.038622     -0.017073      0.000960
      4.95028      4.24210     21.96146        -0.026422      0.061288      0.000610
      6.14072      4.96660     21.96141         0.328065     -0.220422     -0.000726
      6.17575      6.36045     21.96154        -0.069194     -0.006558     -0.000234
      7.37113      7.11296     21.96156         0.029828      0.028386     -0.000649
      4.90255      0.00549     21.96152         0.047328     -0.028630      0.000052
      6.13816      0.71519     21.96158        -0.110236      0.049583      0.000304
      6.13555      2.15616     21.96167         0.156743     -0.354962     -0.000430
      7.35125      2.81365     21.96163        -0.544033     -0.043744     -0.001506
      8.61519      4.99551     21.96203        -0.199943      0.479626     -0.000755
      8.57602      6.37640     21.96146         0.361747      0.066681      0.002189
      9.82542      7.09413     21.96149        -0.081431      0.061297     -0.000304
      7.36142      0.00689     21.96154         0.029189      0.012236     -0.000009
      8.58321      0.72104     21.96147         0.025003      0.028968     -0.000110
      8.58197      2.16765     21.96138        -0.073361     -0.208392      0.001707
      9.82567      2.83879     21.96159        -0.021270      0.058179     -0.001621
      9.78826      4.25246     21.96153         0.149352      0.126522      0.001645
     11.04160      4.97307     21.96151         0.008503     -0.037192      0.000039
     11.05013      6.38789     21.96157         0.012611     -0.001004     -0.000339
     12.28215      7.09850     21.96159         0.006816     -0.029419     -0.000132
 -----------------------------------------------------------------------------------
    total drift:                               -0.000060     -0.000150      0.000128


--------------------------------------------------------------------------------------------------------



  FREE ENERGIE OF THE ION-ELECTRON SYSTEM (eV)
  ---------------------------------------------------
  free  energy   TOTEN  =      -280.83104978 eV

  energy  without entropy=     -280.83104978  energy(sigma->0) =     -280.83104978
 


--------------------------------------------------------------------------------------------------------


    POTLOK:  cpu time    0.9903: real time    0.9938


--------------------------------------------------------------------------------------------------------


     LOOP+:  cpu time 4151.3815: real time 4162.0458
    4ORBIT:  cpu time    0.0000: real time    0.0000
 BZINTS: Fermi energy: -3.944203;124.000000 electrons
         Band energy:***********;  BLOECHL correction: -0.018732

 total amount of memory used by VASP MPI-rank0   403245. kBytes
=======================================================================

   base      :      30000. kBytes
   nonl-proj :      38995. kBytes
   fftplans  :      41097. kBytes
   grid      :      97443. kBytes
   one-center:         24. kBytes
   wavefun   :     195686. kBytes
 
  
  
 General timing and accounting informations for this job:
 ========================================================
  
                  Total CPU time used (sec):     4183.732
                            User time (sec):     3875.904
                          System time (sec):      307.828
                         Elapsed time (sec):     4194.584
  
                   Maximum memory used (kb):      518340.
                   Average memory used (kb):           0.
  
                          Minor page faults:      5171102
                          Major page faults:           11
                 Voluntary context switches:         3128
