<?xml version="1.0" encoding="ISO-8859-1"?>
<modeling>
 <generator>
  <i name="program" type="string">vasp </i>
  <i name="version" type="string">5.4.4.18Apr17-6-g9f103f2a35  </i>
  <i name="subversion" type="string">(build Jan 12 2023 11:40:15) complex            parallel </i>
  <i name="platform" type="string">LinuxIFC </i>
  <i name="date" type="string">2024 01 13 </i>
  <i name="time" type="string">00:37:07 </i>
 </generator>
 <incar>
  <i type="int" name="ISTART">     0</i>
  <i type="string" name="PREC">accurate   (precision level)</i>
  <i type="string" name="ALGO"> Normal</i>
  <i type="int" name="ISPIN">     2</i>
  <i type="int" name="ICHARG">     2</i>
  <i type="int" name="NELM">   150</i>
  <i type="int" name="IBRION">    -1</i>
  <i name="EDIFF">      0.00000010</i>
  <i type="int" name="NSW">     1</i>
  <i type="int" name="ISYM">     0</i>
  <i name="ENCUT">    850.00000000</i>
  <i type="logical" name="LREAL"> F  </i>
  <i type="int" name="ISMEAR">    -5</i>
  <i name="SIGMA">      0.02000000</i>
  <i name="KSPACING">      0.15000000</i>
  <i type="logical" name="KGAMMA"> T  </i>
  <i type="logical" name="LWAVE"> F  </i>
  <i type="logical" name="LCHARG"> F  </i>
  <v type="int" name="KPOINT_BSE">    -1     0     0     0</v>
  <i type="int" name="NELM">   150</i>
 </incar>
 <structure name="primitive_cell" >
  <crystal>
   <varray name="basis" >
    <v>       9.81620680       0.00706583       0.00000952 </v>
    <v>       4.92084228       8.51324057       0.00001727 </v>
    <v>       0.00004787       0.00007360      49.91257838 </v>
   </varray>
   <i name="volume">   4169.34541869 </i>
   <varray name="rec_basis" >
    <v>       0.10191475      -0.05890899      -0.00000001 </v>
    <v>      -0.00008459       0.11751298      -0.00000017 </v>
    <v>      -0.00000002      -0.00000003       0.02003503 </v>
   </varray>
  </crystal>
  <varray name="positions" >
   <v>       0.00034999       0.00004198       0.43999953 </v>
   <v>       0.08291450       0.08344003       0.43999948 </v>
   <v>      -0.16772021       0.08400217       0.43999844 </v>
   <v>       0.08456938      -0.16799320       0.44000011 </v>
   <v>       0.24970673       0.00017488       0.44000031 </v>
   <v>      -0.00051206       0.25016326       0.43999963 </v>
   <v>      -0.25016875       0.00018261       0.43999993 </v>
   <v>       0.00087229      -0.25058517       0.44000008 </v>
   <v>      -0.25306472       0.25399702       0.43999665 </v>
   <v>       0.25471243      -0.25309111       0.43999984 </v>
   <v>       0.33220950      -0.16476189       0.44000016 </v>
   <v>      -0.16584933       0.33275926       0.44000077 </v>
   <v>      -0.16643363      -0.16687647       0.44000059 </v>
   <v>      -0.41654939       0.33001523       0.44000167 </v>
   <v>       0.33302780       0.08329730       0.44000042 </v>
   <v>       0.08291941       0.33325794       0.44000005 </v>
   <v>      -0.41656285       0.08352134       0.44000073 </v>
   <v>       0.33325184      -0.41688270       0.43999715 </v>
   <v>       0.08454618      -0.41683769       0.44000000 </v>
   <v>       0.49839510      -0.25141898       0.43999811 </v>
   <v>      -0.25294066       0.49888730       0.43999957 </v>
   <v>       0.24964665       0.24987110       0.44000020 </v>
   <v>      -0.25013313      -0.25027847       0.44000035 </v>
   <v>       0.49828564       0.25285437       0.44000247 </v>
   <v>       0.25460856       0.49807955       0.43999830 </v>
   <v>       0.49931885       0.00022678       0.43999954 </v>
   <v>       0.00036488       0.49935238       0.44000009 </v>
   <v>      -0.41626605      -0.41369499       0.44000952 </v>
   <v>      -0.41655331      -0.16718261       0.43999873 </v>
   <v>      -0.16765736      -0.41653696       0.43999913 </v>
   <v>       0.33218845       0.33221077       0.43999849 </v>
  </varray>
 </structure>
 <varray name="primitive_index" >
  <v type="int" >        1 </v>
  <v type="int" >        2 </v>
  <v type="int" >       25 </v>
  <v type="int" >        8 </v>
  <v type="int" >        9 </v>
  <v type="int" >        3 </v>
  <v type="int" >       24 </v>
  <v type="int" >        7 </v>
  <v type="int" >       26 </v>
  <v type="int" >       15 </v>
  <v type="int" >       16 </v>
  <v type="int" >       27 </v>
  <v type="int" >       31 </v>
  <v type="int" >       20 </v>
  <v type="int" >       10 </v>
  <v type="int" >        4 </v>
  <v type="int" >       18 </v>
  <v type="int" >       14 </v>
  <v type="int" >        6 </v>
  <v type="int" >       22 </v>
  <v type="int" >       28 </v>
  <v type="int" >       11 </v>
  <v type="int" >       30 </v>
  <v type="int" >       19 </v>
  <v type="int" >       13 </v>
  <v type="int" >       17 </v>
  <v type="int" >        5 </v>
  <v type="int" >       21 </v>
  <v type="int" >       23 </v>
  <v type="int" >       29 </v>
  <v type="int" >       12 </v>
 </varray>
 <kpoints>
  <generation param="Gamma">
   <v type="int" name="divisions">       5        5        1 </v>
   <v name="usershift">      0.00000000       0.00000000       0.00000000 </v>
   <v name="genvec1">      0.20000000      -0.00000000      -0.00000000 </v>
   <v name="genvec2">     -0.00000000       0.20000000       0.00000000 </v>
   <v name="genvec3">     -0.00000000       0.00000000       1.00000000 </v>
   <v name="shift">      0.00000000       0.00000000       0.00000000 </v>
  </generation>
  <varray name="kpointlist" >
   <v>       0.00000000       0.00000000       0.00000000 </v>
   <v>       0.20000000      -0.00000000      -0.00000000 </v>
   <v>       0.40000000      -0.00000000      -0.00000000 </v>
   <v>       0.00000000       0.20000000      -0.00000000 </v>
   <v>       0.20000000       0.20000000       0.00000000 </v>
   <v>       0.40000000       0.20000000       0.00000000 </v>
   <v>      -0.40000000       0.20000000      -0.00000000 </v>
   <v>      -0.20000000       0.20000000      -0.00000000 </v>
   <v>       0.00000000       0.40000000      -0.00000000 </v>
   <v>       0.20000000       0.40000000      -0.00000000 </v>
   <v>       0.40000000       0.40000000       0.00000000 </v>
   <v>      -0.40000000       0.40000000      -0.00000000 </v>
   <v>      -0.20000000       0.40000000      -0.00000000 </v>
  </varray>
  <varray name="weights" >
   <v>       0.04000000 </v>
   <v>       0.08000000 </v>
   <v>       0.08000000 </v>
   <v>       0.08000000 </v>
   <v>       0.08000000 </v>
   <v>       0.08000000 </v>
   <v>       0.08000000 </v>
   <v>       0.08000000 </v>
   <v>       0.08000000 </v>
   <v>       0.08000000 </v>
   <v>       0.08000000 </v>
   <v>       0.08000000 </v>
   <v>       0.08000000 </v>
  </varray>
  <varray name="tetrahedronlist"  type="int" >
   <v type="int" >        2        1        1        2        5 </v>
   <v type="int" >        2        1        1        4        5 </v>
   <v type="int" >        2        1        4        4        5 </v>
   <v type="int" >        2        1        2        2        5 </v>
   <v type="int" >        2        1        2        5        5 </v>
   <v type="int" >        2        1        4        5        5 </v>
   <v type="int" >        2        2        2        3        6 </v>
   <v type="int" >        2        2        2        5        6 </v>
   <v type="int" >        2        2        5        5        6 </v>
   <v type="int" >        2        2        3        3        6 </v>
   <v type="int" >        2        2        3        6        6 </v>
   <v type="int" >        2        2        5        6        6 </v>
   <v type="int" >        4        3        3        3        7 </v>
   <v type="int" >        2        3        3        6        7 </v>
   <v type="int" >        2        3        6        6        7 </v>
   <v type="int" >        2        3        3        7        7 </v>
   <v type="int" >        2        3        6        7        7 </v>
   <v type="int" >        2        2        3        3        8 </v>
   <v type="int" >        2        3        3        7        8 </v>
   <v type="int" >        2        3        7        7        8 </v>
   <v type="int" >        2        2        2        3        8 </v>
   <v type="int" >        2        2        3        8        8 </v>
   <v type="int" >        2        3        7        8        8 </v>
   <v type="int" >        2        1        2        2        4 </v>
   <v type="int" >        2        2        2        4        8 </v>
   <v type="int" >        2        2        4        8        8 </v>
   <v type="int" >        2        1        1        2        4 </v>
   <v type="int" >        2        1        2        4        4 </v>
   <v type="int" >        2        2        4        4        8 </v>
   <v type="int" >        2        4        4        5       10 </v>
   <v type="int" >        2        4        4        9       10 </v>
   <v type="int" >        2        4        9        9       10 </v>
   <v type="int" >        2        4        5        5       10 </v>
   <v type="int" >        2        4        5       10       10 </v>
   <v type="int" >        2        4        9       10       10 </v>
   <v type="int" >        2        5        5        6       11 </v>
   <v type="int" >        2        5        5       10       11 </v>
   <v type="int" >        2        5       10       10       11 </v>
   <v type="int" >        2        5        6        6       11 </v>
   <v type="int" >        2        5        6       11       11 </v>
   <v type="int" >        2        5       10       11       11 </v>
   <v type="int" >        2        6        6        7       12 </v>
   <v type="int" >        2        6        6       11       12 </v>
   <v type="int" >        2        6       11       11       12 </v>
   <v type="int" >        2        6        7        7       12 </v>
   <v type="int" >        2        6        7       12       12 </v>
   <v type="int" >        2        6       11       12       12 </v>
   <v type="int" >        2        7        7        8       13 </v>
   <v type="int" >        2        7        7       12       13 </v>
   <v type="int" >        2        7       12       12       13 </v>
   <v type="int" >        2        7        8        8       13 </v>
   <v type="int" >        2        7        8       13       13 </v>
   <v type="int" >        2        7       12       13       13 </v>
   <v type="int" >        2        4        8        8        9 </v>
   <v type="int" >        2        8        8        9       13 </v>
   <v type="int" >        2        8        9       13       13 </v>
   <v type="int" >        2        4        4        8        9 </v>
   <v type="int" >        2        4        8        9        9 </v>
   <v type="int" >        2        8        9        9       13 </v>
   <v type="int" >        2        9        9       10       13 </v>
   <v type="int" >        4        9        9        9       13 </v>
   <v type="int" >        2        9       10       10       13 </v>
   <v type="int" >        2        9       10       13       13 </v>
   <v type="int" >        2        9        9       13       13 </v>
   <v type="int" >        2       10       10       11       12 </v>
   <v type="int" >        2       10       10       12       13 </v>
   <v type="int" >        2       10       12       13       13 </v>
   <v type="int" >        2       10       11       11       12 </v>
   <v type="int" >        2       10       11       12       12 </v>
   <v type="int" >        2       10       12       12       13 </v>
   <v type="int" >        4       11       11       11       12 </v>
   <v type="int" >        2       11       11       12       12 </v>
  </varray>
  <i name="volumeweight">      0.00666667 </i>
 </kpoints>
 <parameters>
  <separator name="general" >
   <i type="string" name="SYSTEM">unknown system</i>
   <i type="logical" name="LCOMPAT"> F  </i>
  </separator>
  <separator name="electronic" >
   <i type="string" name="PREC">accura</i>
   <i name="ENMAX">    850.00000000</i>
   <i name="ENAUG">    644.87300000</i>
   <i name="EDIFF">      0.00000010</i>
   <i type="int" name="IALGO">    38</i>
   <i type="int" name="IWAVPR">    10</i>
   <i type="int" name="NBANDS">    96</i>
   <i name="NELECT">    124.00000000</i>
   <i type="int" name="TURBO">     0</i>
   <i type="int" name="IRESTART">     0</i>
   <i type="int" name="NREBOOT">     0</i>
   <i type="int" name="NMIN">     0</i>
   <i name="EREF">      0.00000000</i>
   <separator name="electronic smearing" >
    <i type="int" name="ISMEAR">    -5</i>
    <i name="SIGMA">      0.02000000</i>
    <i name="KSPACING">      0.15000000</i>
    <i type="logical" name="KGAMMA"> T  </i>
   </separator>
   <separator name="electronic projectors" >
    <i type="logical" name="LREAL"> F  </i>
    <v name="ROPT">      0.00000000</v>
    <i type="int" name="LMAXPAW">  -100</i>
    <i type="int" name="LMAXMIX">     2</i>
    <i type="logical" name="NLSPLINE"> F  </i>
   </separator>
   <separator name="electronic startup" >
    <i type="int" name="ISTART">     0</i>
    <i type="int" name="ICHARG">     2</i>
    <i type="int" name="INIWAV">     1</i>
   </separator>
   <separator name="electronic spin" >
    <i type="int" name="ISPIN">     2</i>
    <i type="logical" name="LNONCOLLINEAR"> F  </i>
    <v name="MAGMOM">      1.00000000      1.00000000      1.00000000      1.00000000      1.00000000      1.00000000      1.00000000      1.00000000      1.00000000      1.00000000      1.00000000      1.00000000      1.00000000      1.00000000      1.00000000      1.00000000      1.00000000      1.00000000      1.00000000      1.00000000
      1.00000000      1.00000000      1.00000000      1.00000000      1.00000000      1.00000000      1.00000000      1.00000000      1.00000000      1.00000000      1.00000000</v>
    <i name="NUPDOWN">     -1.00000000</i>
    <i type="logical" name="LSORBIT"> F  </i>
    <v name="SAXIS">      0.00000000      0.00000000      1.00000000</v>
    <i type="logical" name="LSPIRAL"> F  </i>
    <v name="QSPIRAL">      0.00000000      0.00000000      0.00000000</v>
    <i type="logical" name="LZEROZ"> F  </i>
   </separator>
   <separator name="electronic exchange-correlation" >
    <i type="logical" name="LASPH"> F  </i>
    <i type="logical" name="LMETAGGA"> F  </i>
   </separator>
   <separator name="electronic convergence" >
    <i type="int" name="NELM">   150</i>
    <i type="int" name="NELMDL">    -5</i>
    <i type="int" name="NELMIN">     2</i>
    <i name="ENINI">    850.00000000</i>
    <separator name="electronic convergence detail" >
     <i type="logical" name="LDIAG"> T  </i>
     <i type="logical" name="LSUBROT"> F  </i>
     <i name="WEIMIN">      0.00000000</i>
     <i name="EBREAK">      0.00000000</i>
     <i name="DEPER">      0.30000000</i>
     <i type="int" name="NRMM">     4</i>
     <i name="TIME">      0.40000000</i>
    </separator>
   </separator>
   <separator name="electronic mixer" >
    <i name="AMIX">      0.40000000</i>
    <i name="BMIX">      1.00000000</i>
    <i name="AMIN">      0.10000000</i>
    <i name="AMIX_MAG">      1.60000000</i>
    <i name="BMIX_MAG">      1.00000000</i>
    <separator name="electronic mixer details" >
     <i type="int" name="IMIX">     4</i>
     <i type="logical" name="MIXFIRST"> F  </i>
     <i type="int" name="MAXMIX">   -45</i>
     <i name="WC">    100.00000000</i>
     <i type="int" name="INIMIX">     1</i>
     <i type="int" name="MIXPRE">     1</i>
     <i type="int" name="MREMOVE">     5</i>
    </separator>
   </separator>
   <separator name="electronic dipolcorrection" >
    <i type="logical" name="LDIPOL"> F  </i>
    <i type="logical" name="LMONO"> F  </i>
    <i type="int" name="IDIPOL">     0</i>
    <i name="EPSILON">      1.00000000</i>
    <v name="DIPOL">   -100.00000000   -100.00000000   -100.00000000</v>
    <i name="EFIELD">      0.00000000</i>
   </separator>
  </separator>
  <separator name="grids" >
   <i type="int" name="NGX">    96</i>
   <i type="int" name="NGY">    96</i>
   <i type="int" name="NGZ">   480</i>
   <i type="int" name="NGXF">   192</i>
   <i type="int" name="NGYF">   192</i>
   <i type="int" name="NGZF">   960</i>
   <i type="logical" name="ADDGRID"> F  </i>
  </separator>
  <separator name="ionic" >
   <i type="int" name="NSW">     1</i>
   <i type="int" name="IBRION">    -1</i>
   <i type="int" name="MDALGO">     0</i>
   <i type="int" name="ISIF">     2</i>
   <i name="PSTRESS">      0.00000000</i>
   <i name="EDIFFG">      0.00000100</i>
   <i type="int" name="NFREE">     0</i>
   <i name="POTIM">      0.50000000</i>
   <i name="SMASS">     -3.00000000</i>
   <i name="SCALEE">      1.00000000</i>
  </separator>
  <separator name="ionic md" >
   <i name="TEBEG">      0.00010000</i>
   <i name="TEEND">      0.00010000</i>
   <i type="int" name="NBLOCK">     1</i>
   <i type="int" name="KBLOCK">     1</i>
   <i type="int" name="NPACO">   256</i>
   <i name="APACO">     16.00000000</i>
  </separator>
  <separator name="symmetry" >
   <i type="int" name="ISYM">     0</i>
   <i name="SYMPREC">      0.00001000</i>
  </separator>
  <separator name="dos" >
   <i type="int" name="LORBIT">     0</i>
   <v name="RWIGS">     -1.00000000</v>
   <i type="int" name="NEDOS">   301</i>
   <i name="EMIN">     10.00000000</i>
   <i name="EMAX">    -10.00000000</i>
   <i name="EFERMI">      0.00000000</i>
  </separator>
  <separator name="writing" >
   <i type="int" name="NWRITE">     2</i>
   <i type="logical" name="LWAVE"> F  </i>
   <i type="logical" name="LDOWNSAMPLE"> F  </i>
   <i type="logical" name="LCHARG"> F  </i>
   <i type="logical" name="LPARD"> F  </i>
   <i type="logical" name="LVTOT"> F  </i>
   <i type="logical" name="LVHAR"> F  </i>
   <i type="logical" name="LELF"> F  </i>
   <i type="logical" name="LOPTICS"> F  </i>
   <v name="STM">      0.00000000      0.00000000      0.00000000      0.00000000      0.00000000      0.00000000      0.00000000</v>
  </separator>
  <separator name="performance" >
   <i type="int" name="NPAR">     6</i>
   <i type="int" name="NSIM">     4</i>
   <i type="int" name="NBLK">    -1</i>
   <i type="logical" name="LPLANE"> T  </i>
   <i type="logical" name="LSCALAPACK"> F  </i>
   <i type="logical" name="LSCAAWARE"> F  </i>
   <i type="logical" name="LSCALU"> F  </i>
   <i type="logical" name="LASYNC"> F  </i>
   <i type="logical" name="LORBITALREAL"> F  </i>
  </separator>
  <separator name="miscellaneous" >
   <i type="int" name="IDIOT">     3</i>
   <i type="int" name="ISPECIAL">     0</i>
   <i type="logical" name="LMUSIC"> F  </i>
   <v name="POMASS">     12.01100000</v>
   <v name="DARWINR">      0.00000000</v>
   <v name="DARWINV">      1.00000000</v>
   <i type="logical" name="LCORR"> T  </i>
  </separator>
  <i type="logical" name="GGA_COMPAT"> T  </i>
  <i type="logical" name="LBERRY"> F  </i>
  <i type="int" name="ICORELEVEL">     0</i>
  <i type="logical" name="LDAU"> F  </i>
  <i type="int" name="I_CONSTRAINED_M">     0</i>
  <separator name="electronic exchange-correlation" >
   <i type="string" name="GGA">--</i>
   <i type="int" name="VOSKOWN">     0</i>
   <i type="logical" name="LHFCALC"> F  </i>
   <i type="string" name="PRECFOCK"></i>
   <i type="logical" name="LSYMGRAD"> F  </i>
   <i type="logical" name="LHFONE"> F  </i>
   <i type="logical" name="LRHFCALC"> F  </i>
   <i type="logical" name="LTHOMAS"> F  </i>
   <i type="logical" name="LMODELHF"> F  </i>
   <i name="ENCUT4O">     -1.00000000</i>
   <i type="int" name="EXXOEP">     0</i>
   <i type="int" name="FOURORBIT">     0</i>
   <i name="AEXX">      0.00000000</i>
   <i name="HFALPHA">      0.00000000</i>
   <i name="MCALPHA">      0.00000000</i>
   <i name="ALDAX">      1.00000000</i>
   <i name="AGGAX">      1.00000000</i>
   <i name="ALDAC">      1.00000000</i>
   <i name="AGGAC">      1.00000000</i>
   <i type="int" name="NKREDX">     1</i>
   <i type="int" name="NKREDY">     1</i>
   <i type="int" name="NKREDZ">     1</i>
   <i type="logical" name="SHIFTRED"> F  </i>
   <i type="logical" name="ODDONLY"> F  </i>
   <i type="logical" name="EVENONLY"> F  </i>
   <i type="int" name="LMAXFOCK">     0</i>
   <i type="int" name="NMAXFOCKAE">     0</i>
   <i type="logical" name="LFOCKAEDFT"> F  </i>
   <i name="HFSCREEN">      0.00000000</i>
   <i name="HFSCREENC">      0.00000000</i>
   <i type="int" name="NBANDSGWLOW">     0</i>
  </separator>
  <separator name="vdW DFT" >
   <i type="logical" name="LUSE_VDW"> F  </i>
   <i name="Zab_VDW">     -0.84910000</i>
   <i name="PARAM1">      0.12340000</i>
   <i name="PARAM2">      1.00000000</i>
   <i name="PARAM3">      0.00000000</i>
  </separator>
  <separator name="model GW" >
   <i type="int" name="MODEL_GW">     0</i>
   <i name="MODEL_EPS0">     80.69700810</i>
   <i name="MODEL_ALPHA">      1.00000000</i>
  </separator>
  <separator name="linear response parameters" >
   <i type="logical" name="LEPSILON"> F  </i>
   <i type="logical" name="LRPA"> F  </i>
   <i type="logical" name="LNABLA"> F  </i>
   <i type="logical" name="LVEL"> F  </i>
   <i type="int" name="KINTER">     0</i>
   <i name="CSHIFT">      0.10000000</i>
   <i name="OMEGAMAX">     -1.00000000</i>
   <i name="DEG_THRESHOLD">      0.00200000</i>
   <i name="RTIME">     -0.10000000</i>
   <i name="WPLASMAI">      0.00000000</i>
   <v name="DFIELD">      0.00000000      0.00000000      0.00000000</v>
   <v name="WPLASMA">      0.00000000      0.00000000      0.00000000      0.00000000      0.00000000      0.00000000      0.00000000      0.00000000      0.00000000</v>
  </separator>
  <separator name="orbital magnetization" >
   <i type="logical" name="NUCIND"> F  </i>
   <v name="MAGPOS">      0.00000000      0.00000000      0.00000000</v>
   <i type="logical" name="LNICSALL"> T  </i>
   <i type="logical" name="ORBITALMAG"> F  </i>
   <i type="logical" name="LMAGBLOCH"> F  </i>
   <i type="logical" name="LCHIMAG"> F  </i>
   <i type="logical" name="LGAUGE"> T  </i>
   <i type="int" name="MAGATOM">     0</i>
   <v name="MAGDIPOL">      0.00000000      0.00000000      0.00000000</v>
   <v name="AVECCONST">      0.00000000      0.00000000      0.00000000</v>
  </separator>
  <separator name="response functions" >
   <i type="logical" name="LADDER"> F  </i>
   <i type="logical" name="LRPAFORCE"> F  </i>
   <i type="logical" name="LFXC"> F  </i>
   <i type="logical" name="LHARTREE"> T  </i>
   <i type="int" name="IBSE">     0</i>
   <v type="int" name="KPOINT">    -1     0     0     0</v>
   <i type="logical" name="LTCTE"> F  </i>
   <i type="logical" name="LTETE"> F  </i>
   <i type="logical" name="LTRIPLET"> F  </i>
   <i type="logical" name="LFXCEPS"> F  </i>
   <i type="logical" name="LFXHEG"> F  </i>
   <i type="int" name="NATURALO">     2</i>
   <i type="logical" name="L2ORDER"> F  </i>
   <i type="logical" name="LMP2LT"> F  </i>
   <i type="logical" name="LUSEW"> F  </i>
   <i name="ENCUTGW">     -2.00000000</i>
   <i name="ENCUTGWSOFT">     -2.00000000</i>
   <i name="ENCUTLF">     -1.00000000</i>
   <i type="int" name="LMAXMP2">    -1</i>
   <i name="SCISSOR">      0.00000000</i>
   <i type="int" name="NOMEGA">     0</i>
   <i type="int" name="NOMEGAR">     0</i>
   <i type="int" name="NBANDSGW">    -1</i>
   <i type="int" name="NBANDSO">    -1</i>
   <i type="int" name="NBANDSV">    -1</i>
   <i type="int" name="NELM">   150</i>
   <i type="int" name="NELMHF">     1</i>
   <i type="int" name="DIM">     3</i>
   <i type="int" name="ANTIRES">     0</i>
   <i name="OMEGAMAX">    -30.00000000</i>
   <i name="OMEGAMIN">    -30.00000000</i>
   <i name="OMEGATL">   -200.00000000</i>
   <i type="int" name="OMEGAGRID">   140</i>
   <i name="CSHIFT">     -0.10000000</i>
   <i type="logical" name="SELFENERGY"> F  </i>
   <i type="logical" name="LSPECTRAL"> F  </i>
   <i type="logical" name="LSPECTRALGW"> F  </i>
   <i type="logical" name="LSINGLES"> F  </i>
   <i type="logical" name="LFERMIGW"> F  </i>
   <i type="logical" name="ODDONLYGW"> F  </i>
   <i type="logical" name="EVENONLYGW"> F  </i>
   <i type="int" name="NKREDLFX">     1</i>
   <i type="int" name="NKREDLFY">     1</i>
   <i type="int" name="NKREDLFZ">     1</i>
   <i type="int" name="MAXMEM">  2800</i>
   <i type="int" name="TELESCOPE">     0</i>
   <i type="int" name="TAUPAR">     1</i>
   <i type="int" name="OMEGAPAR">    -1</i>
   <i name="LAMBDA">      1.00000000</i>
  </separator>
  <separator name="External order field" >
   <i name="OFIELD_KAPPA">      0.00000000</i>
   <v name="OFIELD_K">      0.00000000      0.00000000      0.00000000</v>
   <i name="OFIELD_Q6_NEAR">      0.00000000</i>
   <i name="OFIELD_Q6_FAR">      0.00000000</i>
   <i name="OFIELD_A">      0.00000000</i>
  </separator>
 </parameters>
 <atominfo>
  <atoms>      31 </atoms>
  <types>       1 </types>
  <array name="atoms" >
   <dimension dim="1">ion</dimension>
   <field type="string">element</field>
   <field type="int">atomtype</field>
   <set>
    <rc><c>C </c><c>   1</c></rc>
    <rc><c>C </c><c>   1</c></rc>
    <rc><c>C </c><c>   1</c></rc>
    <rc><c>C </c><c>   1</c></rc>
    <rc><c>C </c><c>   1</c></rc>
    <rc><c>C </c><c>   1</c></rc>
    <rc><c>C </c><c>   1</c></rc>
    <rc><c>C </c><c>   1</c></rc>
    <rc><c>C </c><c>   1</c></rc>
    <rc><c>C </c><c>   1</c></rc>
    <rc><c>C </c><c>   1</c></rc>
    <rc><c>C </c><c>   1</c></rc>
    <rc><c>C </c><c>   1</c></rc>
    <rc><c>C </c><c>   1</c></rc>
    <rc><c>C </c><c>   1</c></rc>
    <rc><c>C </c><c>   1</c></rc>
    <rc><c>C </c><c>   1</c></rc>
    <rc><c>C </c><c>   1</c></rc>
    <rc><c>C </c><c>   1</c></rc>
    <rc><c>C </c><c>   1</c></rc>
    <rc><c>C </c><c>   1</c></rc>
    <rc><c>C </c><c>   1</c></rc>
    <rc><c>C </c><c>   1</c></rc>
    <rc><c>C </c><c>   1</c></rc>
    <rc><c>C </c><c>   1</c></rc>
    <rc><c>C </c><c>   1</c></rc>
    <rc><c>C </c><c>   1</c></rc>
    <rc><c>C </c><c>   1</c></rc>
    <rc><c>C </c><c>   1</c></rc>
    <rc><c>C </c><c>   1</c></rc>
    <rc><c>C </c><c>   1</c></rc>
   </set>
  </array>
  <array name="atomtypes" >
   <dimension dim="1">type</dimension>
   <field type="int">atomspertype</field>
   <field type="string">element</field>
   <field>mass</field>
   <field>valence</field>
   <field type="string">pseudopotential</field>
   <set>
    <rc><c>  31</c><c>C </c><c>     12.01100000</c><c>      4.00000000</c><c>  PAW_PBE C 08Apr2002                   </c></rc>
   </set>
  </array>
 </atominfo>
 <structure name="initialpos" >
  <crystal>
   <varray name="basis" >
    <v>       9.81620680       0.00706583       0.00000952 </v>
    <v>       4.92084228       8.51324057       0.00001727 </v>
    <v>       0.00004787       0.00007360      49.91257838 </v>
   </varray>
   <i name="volume">   4169.34541869 </i>
   <varray name="rec_basis" >
    <v>       0.10191475      -0.05890899      -0.00000001 </v>
    <v>      -0.00008459       0.11751298      -0.00000017 </v>
    <v>      -0.00000002      -0.00000003       0.02003503 </v>
   </varray>
  </crystal>
  <varray name="positions" >
   <v>       0.00034999       0.00004198       0.43999953 </v>
   <v>       0.08291450       0.08344003       0.43999948 </v>
   <v>       0.99948794       0.25016326       0.43999963 </v>
   <v>       0.08291941       0.33325794       0.44000005 </v>
   <v>       0.00036488       0.49935238       0.44000009 </v>
   <v>       0.08454618       0.58316231       0.44000000 </v>
   <v>       0.00087229       0.74941483       0.44000008 </v>
   <v>       0.08456938       0.83200680       0.44000011 </v>
   <v>       0.24970673       0.00017488       0.44000031 </v>
   <v>       0.33302780       0.08329730       0.44000042 </v>
   <v>       0.24964665       0.24987110       0.44000020 </v>
   <v>       0.33218845       0.33221077       0.43999849 </v>
   <v>       0.25460856       0.49807955       0.43999830 </v>
   <v>       0.33325184       0.58311730       0.43999715 </v>
   <v>       0.25471243       0.74690889       0.43999984 </v>
   <v>       0.33220950       0.83523811       0.44000016 </v>
   <v>       0.49931885       0.00022678       0.43999954 </v>
   <v>       0.58343715       0.08352134       0.44000073 </v>
   <v>       0.49828564       0.25285437       0.44000247 </v>
   <v>       0.58345061       0.33001523       0.44000167 </v>
   <v>       0.58373395       0.58630501       0.44000952 </v>
   <v>       0.49839510       0.74858102       0.43999811 </v>
   <v>       0.58344669       0.83281739       0.43999873 </v>
   <v>       0.74983125       0.00018261       0.43999993 </v>
   <v>       0.83227979       0.08400217       0.43999844 </v>
   <v>       0.74693528       0.25399702       0.43999665 </v>
   <v>       0.83415067       0.33275926       0.44000077 </v>
   <v>       0.74705934       0.49888730       0.43999957 </v>
   <v>       0.83234264       0.58346304       0.43999913 </v>
   <v>       0.74986687       0.74972153       0.44000035 </v>
   <v>       0.83356637       0.83312353       0.44000059 </v>
  </varray>
  <varray name="velocities" >
   <v>       0.00000000       0.00000000       0.00000000 </v>
   <v>       0.00000000       0.00000000       0.00000000 </v>
   <v>       0.00000000       0.00000000       0.00000000 </v>
   <v>       0.00000000       0.00000000       0.00000000 </v>
   <v>       0.00000000       0.00000000       0.00000000 </v>
   <v>       0.00000000       0.00000000       0.00000000 </v>
   <v>       0.00000000       0.00000000       0.00000000 </v>
   <v>       0.00000000       0.00000000       0.00000000 </v>
   <v>       0.00000000       0.00000000       0.00000000 </v>
   <v>       0.00000000       0.00000000       0.00000000 </v>
   <v>       0.00000000       0.00000000       0.00000000 </v>
   <v>       0.00000000       0.00000000       0.00000000 </v>
   <v>       0.00000000       0.00000000       0.00000000 </v>
   <v>       0.00000000       0.00000000       0.00000000 </v>
   <v>       0.00000000       0.00000000       0.00000000 </v>
   <v>       0.00000000       0.00000000       0.00000000 </v>
   <v>       0.00000000       0.00000000       0.00000000 </v>
   <v>       0.00000000       0.00000000       0.00000000 </v>
   <v>       0.00000000       0.00000000       0.00000000 </v>
   <v>       0.00000000       0.00000000       0.00000000 </v>
   <v>       0.00000000       0.00000000       0.00000000 </v>
   <v>       0.00000000       0.00000000       0.00000000 </v>
   <v>       0.00000000       0.00000000       0.00000000 </v>
   <v>       0.00000000       0.00000000       0.00000000 </v>
   <v>       0.00000000       0.00000000       0.00000000 </v>
   <v>       0.00000000       0.00000000       0.00000000 </v>
   <v>       0.00000000       0.00000000       0.00000000 </v>
   <v>       0.00000000       0.00000000       0.00000000 </v>
   <v>       0.00000000       0.00000000       0.00000000 </v>
   <v>       0.00000000       0.00000000       0.00000000 </v>
   <v>       0.00000000       0.00000000       0.00000000 </v>
  </varray>
 </structure>
 <calculation>
  <scstep>
   <time name="dav">  115.05  115.32</time>
   <time name="total">  116.15  116.46</time>
   <energy>
    <i name="alphaZ">     18.93414581 </i>
    <i name="ewald">  61121.33006500 </i>
    <i name="hartreedc"> -64247.83058005 </i>
    <i name="XCdc">    412.55146433 </i>
    <i name="pawpsdc">   3360.20773451 </i>
    <i name="pawaedc">  -3377.58484670 </i>
    <i name="eentropy">      0.00000000 </i>
    <i name="bandstr">   -462.91216461 </i>
    <i name="atom">   4561.79852166 </i>
    <i name="e_fr_energy">   1386.49433995 </i>
    <i name="e_wo_entrp">   1386.49433995 </i>
    <i name="e_0_energy">   1386.49433995 </i>
   </energy>
  </scstep>
  <scstep>
   <time name="dav">  145.77  146.13</time>
   <time name="total">  145.78  146.15</time>
   <energy>
    <i name="e_fr_energy">    134.26987129 </i>
    <i name="e_wo_entrp">    134.26987129 </i>
    <i name="e_0_energy">    134.26987129 </i>
   </energy>
  </scstep>
  <scstep>
   <time name="dav">  101.68  101.94</time>
   <time name="total">  101.69  101.95</time>
   <energy>
    <i name="e_fr_energy">   -261.53683160 </i>
    <i name="e_wo_entrp">   -261.53683160 </i>
    <i name="e_0_energy">   -261.53683160 </i>
   </energy>
  </scstep>
  <scstep>
   <time name="dav">   98.57   98.82</time>
   <time name="total">   98.59   98.83</time>
   <energy>
    <i name="e_fr_energy">   -285.67867545 </i>
    <i name="e_wo_entrp">   -285.67867545 </i>
    <i name="e_0_energy">   -285.67867545 </i>
   </energy>
  </scstep>
  <scstep>
   <time name="dav">   99.06   99.31</time>
   <time name="total">  106.79  107.05</time>
   <energy>
    <i name="e_fr_energy">   -286.18365352 </i>
    <i name="e_wo_entrp">   -286.18365352 </i>
    <i name="e_0_energy">   -286.18365352 </i>
   </energy>
  </scstep>
  <scstep>
   <time name="dav">   90.85   91.08</time>
   <time name="total">   98.46   98.72</time>
   <energy>
    <i name="e_fr_energy">   -200.25107528 </i>
    <i name="e_wo_entrp">   -200.25107528 </i>
    <i name="e_0_energy">   -200.25107528 </i>
   </energy>
  </scstep>
  <scstep>
   <time name="dav">   96.51   96.74</time>
   <time name="total">  103.79  104.05</time>
   <energy>
    <i name="e_fr_energy">   -226.24094239 </i>
    <i name="e_wo_entrp">   -226.24094239 </i>
    <i name="e_0_energy">   -226.24094239 </i>
   </energy>
  </scstep>
  <scstep>
   <time name="dav">   92.95   93.18</time>
   <time name="total">  100.19  100.45</time>
   <energy>
    <i name="e_fr_energy">   -230.50597446 </i>
    <i name="e_wo_entrp">   -230.50597446 </i>
    <i name="e_0_energy">   -230.50597446 </i>
   </energy>
  </scstep>
  <scstep>
   <time name="dav">   89.28   89.50</time>
   <time name="total">   96.50   96.75</time>
   <energy>
    <i name="e_fr_energy">   -239.82816987 </i>
    <i name="e_wo_entrp">   -239.82816987 </i>
    <i name="e_0_energy">   -239.82816987 </i>
   </energy>
  </scstep>
  <scstep>
   <time name="dav">   82.82   83.02</time>
   <time name="total">   90.07   90.30</time>
   <energy>
    <i name="e_fr_energy">   -251.41989490 </i>
    <i name="e_wo_entrp">   -251.41989490 </i>
    <i name="e_0_energy">   -251.41989490 </i>
   </energy>
  </scstep>
  <scstep>
   <time name="dav">   89.15   89.37</time>
   <time name="total">   94.72   94.96</time>
   <energy>
    <i name="e_fr_energy">   -261.29833659 </i>
    <i name="e_wo_entrp">   -261.29833659 </i>
    <i name="e_0_energy">   -261.29833659 </i>
   </energy>
  </scstep>
  <scstep>
   <time name="dav">   88.02   88.24</time>
   <time name="total">   93.60   93.84</time>
   <energy>
    <i name="e_fr_energy">   -267.88382603 </i>
    <i name="e_wo_entrp">   -267.88382603 </i>
    <i name="e_0_energy">   -267.88382603 </i>
   </energy>
  </scstep>
  <scstep>
   <time name="dav">   85.44   85.65</time>
   <time name="total">   91.10   91.33</time>
   <energy>
    <i name="e_fr_energy">   -274.40048045 </i>
    <i name="e_wo_entrp">   -274.40048045 </i>
    <i name="e_0_energy">   -274.40048045 </i>
   </energy>
  </scstep>
  <scstep>
   <time name="dav">   88.83   89.04</time>
   <time name="total">   94.43   94.66</time>
   <energy>
    <i name="e_fr_energy">   -274.93080252 </i>
    <i name="e_wo_entrp">   -274.93080252 </i>
    <i name="e_0_energy">   -274.93080252 </i>
   </energy>
  </scstep>
  <scstep>
   <time name="dav">   84.18   84.38</time>
   <time name="total">   89.77   90.00</time>
   <energy>
    <i name="e_fr_energy">   -275.73704166 </i>
    <i name="e_wo_entrp">   -275.73704166 </i>
    <i name="e_0_energy">   -275.73704166 </i>
   </energy>
  </scstep>
  <scstep>
   <time name="dav">   95.06   95.29</time>
   <time name="total">  102.78  103.04</time>
   <energy>
    <i name="e_fr_energy">   -276.35870191 </i>
    <i name="e_wo_entrp">   -276.35870191 </i>
    <i name="e_0_energy">   -276.35870191 </i>
   </energy>
  </scstep>
  <scstep>
   <time name="dav">  111.40  111.67</time>
   <time name="total">  119.01  119.30</time>
   <energy>
    <i name="e_fr_energy">   -276.54736545 </i>
    <i name="e_wo_entrp">   -276.54736545 </i>
    <i name="e_0_energy">   -276.54736545 </i>
   </energy>
  </scstep>
  <scstep>
   <time name="dav">  102.53  102.78</time>
   <time name="total">  109.73  110.00</time>
   <energy>
    <i name="e_fr_energy">   -276.66316510 </i>
    <i name="e_wo_entrp">   -276.66316510 </i>
    <i name="e_0_energy">   -276.66316510 </i>
   </energy>
  </scstep>
  <scstep>
   <time name="dav">   98.73   98.97</time>
   <time name="total">  105.95  106.21</time>
   <energy>
    <i name="e_fr_energy">   -276.54272073 </i>
    <i name="e_wo_entrp">   -276.54272073 </i>
    <i name="e_0_energy">   -276.54272073 </i>
   </energy>
  </scstep>
  <scstep>
   <time name="dav">   95.16   95.39</time>
   <time name="total">  102.24  102.50</time>
   <energy>
    <i name="e_fr_energy">   -276.91581352 </i>
    <i name="e_wo_entrp">   -276.91581352 </i>
    <i name="e_0_energy">   -276.91581352 </i>
   </energy>
  </scstep>
  <scstep>
   <time name="dav">  100.34  100.58</time>
   <time name="total">  107.39  107.66</time>
   <energy>
    <i name="e_fr_energy">   -278.13279416 </i>
    <i name="e_wo_entrp">   -278.13279416 </i>
    <i name="e_0_energy">   -278.13279416 </i>
   </energy>
  </scstep>
  <scstep>
   <time name="dav">   93.12   93.34</time>
   <time name="total">  100.03  100.28</time>
   <energy>
    <i name="e_fr_energy">   -278.16708100 </i>
    <i name="e_wo_entrp">   -278.16708100 </i>
    <i name="e_0_energy">   -278.16708100 </i>
   </energy>
  </scstep>
  <scstep>
   <time name="dav">   86.17   86.37</time>
   <time name="total">   92.93   93.16</time>
   <energy>
    <i name="e_fr_energy">   -278.18521894 </i>
    <i name="e_wo_entrp">   -278.18521894 </i>
    <i name="e_0_energy">   -278.18521894 </i>
   </energy>
  </scstep>
  <scstep>
   <time name="dav">   83.56   83.76</time>
   <time name="total">   90.28   90.51</time>
   <energy>
    <i name="e_fr_energy">   -278.21824625 </i>
    <i name="e_wo_entrp">   -278.21824625 </i>
    <i name="e_0_energy">   -278.21824625 </i>
   </energy>
  </scstep>
  <scstep>
   <time name="dav">   78.90   79.09</time>
   <time name="total">   85.63   85.85</time>
   <energy>
    <i name="e_fr_energy">   -278.23993831 </i>
    <i name="e_wo_entrp">   -278.23993831 </i>
    <i name="e_0_energy">   -278.23993831 </i>
   </energy>
  </scstep>
  <scstep>
   <time name="dav">   78.55   78.73</time>
   <time name="total">   85.28   85.49</time>
   <energy>
    <i name="e_fr_energy">   -278.28443594 </i>
    <i name="e_wo_entrp">   -278.28443594 </i>
    <i name="e_0_energy">   -278.28443594 </i>
   </energy>
  </scstep>
  <scstep>
   <time name="dav">   81.91   82.11</time>
   <time name="total">   88.66   88.89</time>
   <energy>
    <i name="e_fr_energy">   -278.29292643 </i>
    <i name="e_wo_entrp">   -278.29292643 </i>
    <i name="e_0_energy">   -278.29292643 </i>
   </energy>
  </scstep>
  <scstep>
   <time name="dav">   77.36   77.55</time>
   <time name="total">   84.05   84.27</time>
   <energy>
    <i name="e_fr_energy">   -278.29585856 </i>
    <i name="e_wo_entrp">   -278.29585856 </i>
    <i name="e_0_energy">   -278.29585856 </i>
   </energy>
  </scstep>
  <scstep>
   <time name="dav">   73.12   73.29</time>
   <time name="total">   79.55   79.74</time>
   <energy>
    <i name="e_fr_energy">   -278.29947828 </i>
    <i name="e_wo_entrp">   -278.29947828 </i>
    <i name="e_0_energy">   -278.29947828 </i>
   </energy>
  </scstep>
  <scstep>
   <time name="dav">   72.32   72.50</time>
   <time name="total">   78.22   78.42</time>
   <energy>
    <i name="e_fr_energy">   -278.30184027 </i>
    <i name="e_wo_entrp">   -278.30184027 </i>
    <i name="e_0_energy">   -278.30184027 </i>
   </energy>
  </scstep>
  <scstep>
   <time name="dav">   72.44   72.61</time>
   <time name="total">   78.32   78.52</time>
   <energy>
    <i name="e_fr_energy">   -278.30280335 </i>
    <i name="e_wo_entrp">   -278.30280335 </i>
    <i name="e_0_energy">   -278.30280335 </i>
   </energy>
  </scstep>
  <scstep>
   <time name="dav">   74.23   74.42</time>
   <time name="total">   80.13   80.34</time>
   <energy>
    <i name="e_fr_energy">   -278.30323099 </i>
    <i name="e_wo_entrp">   -278.30323099 </i>
    <i name="e_0_energy">   -278.30323099 </i>
   </energy>
  </scstep>
  <scstep>
   <time name="dav">   71.87   72.05</time>
   <time name="total">   77.63   77.82</time>
   <energy>
    <i name="e_fr_energy">   -278.30348832 </i>
    <i name="e_wo_entrp">   -278.30348832 </i>
    <i name="e_0_energy">   -278.30348832 </i>
   </energy>
  </scstep>
  <scstep>
   <time name="dav">   67.86   68.03</time>
   <time name="total">   73.59   73.78</time>
   <energy>
    <i name="e_fr_energy">   -278.30363228 </i>
    <i name="e_wo_entrp">   -278.30363228 </i>
    <i name="e_0_energy">   -278.30363228 </i>
   </energy>
  </scstep>
  <scstep>
   <time name="dav">   66.48   66.64</time>
   <time name="total">   72.22   72.40</time>
   <energy>
    <i name="e_fr_energy">   -278.30369636 </i>
    <i name="e_wo_entrp">   -278.30369636 </i>
    <i name="e_0_energy">   -278.30369636 </i>
   </energy>
  </scstep>
  <scstep>
   <time name="dav">   70.10   70.27</time>
   <time name="total">   75.83   76.02</time>
   <energy>
    <i name="e_fr_energy">   -278.30374950 </i>
    <i name="e_wo_entrp">   -278.30374950 </i>
    <i name="e_0_energy">   -278.30374950 </i>
   </energy>
  </scstep>
  <scstep>
   <time name="dav">   68.96   69.13</time>
   <time name="total">   74.76   74.95</time>
   <energy>
    <i name="e_fr_energy">   -278.30377120 </i>
    <i name="e_wo_entrp">   -278.30377120 </i>
    <i name="e_0_energy">   -278.30377120 </i>
   </energy>
  </scstep>
  <scstep>
   <time name="dav">   61.71   61.85</time>
   <time name="total">   67.18   67.35</time>
   <energy>
    <i name="e_fr_energy">   -278.30378044 </i>
    <i name="e_wo_entrp">   -278.30378044 </i>
    <i name="e_0_energy">   -278.30378044 </i>
   </energy>
  </scstep>
  <scstep>
   <time name="dav">   61.06   61.21</time>
   <time name="total">   66.53   66.70</time>
   <energy>
    <i name="e_fr_energy">   -278.30378572 </i>
    <i name="e_wo_entrp">   -278.30378572 </i>
    <i name="e_0_energy">   -278.30378572 </i>
   </energy>
  </scstep>
  <scstep>
   <time name="dav">   59.23   59.37</time>
   <time name="total">   64.68   64.84</time>
   <energy>
    <i name="e_fr_energy">   -278.30378863 </i>
    <i name="e_wo_entrp">   -278.30378863 </i>
    <i name="e_0_energy">   -278.30378863 </i>
   </energy>
  </scstep>
  <scstep>
   <time name="dav">   63.83   63.98</time>
   <time name="total">   69.32   69.49</time>
   <energy>
    <i name="e_fr_energy">   -278.30379008 </i>
    <i name="e_wo_entrp">   -278.30379008 </i>
    <i name="e_0_energy">   -278.30379008 </i>
   </energy>
  </scstep>
  <scstep>
   <time name="dav">   60.39   60.53</time>
   <time name="total">   65.87   66.03</time>
   <energy>
    <i name="e_fr_energy">   -278.30379110 </i>
    <i name="e_wo_entrp">   -278.30379110 </i>
    <i name="e_0_energy">   -278.30379110 </i>
   </energy>
  </scstep>
  <scstep>
   <time name="dav">   61.82   61.97</time>
   <time name="total">   67.32   67.49</time>
   <energy>
    <i name="e_fr_energy">   -278.30379164 </i>
    <i name="e_wo_entrp">   -278.30379164 </i>
    <i name="e_0_energy">   -278.30379164 </i>
   </energy>
  </scstep>
  <scstep>
   <time name="dav">   61.06   61.21</time>
   <time name="total">   66.55   66.72</time>
   <energy>
    <i name="e_fr_energy">   -278.30379205 </i>
    <i name="e_wo_entrp">   -278.30379205 </i>
    <i name="e_0_energy">   -278.30379205 </i>
   </energy>
  </scstep>
  <scstep>
   <time name="dav">   60.16   60.31</time>
   <time name="total">   65.65   65.81</time>
   <energy>
    <i name="e_fr_energy">   -278.30379223 </i>
    <i name="e_wo_entrp">   -278.30379223 </i>
    <i name="e_0_energy">   -278.30379223 </i>
   </energy>
  </scstep>
  <scstep>
   <time name="dav">   65.43   65.58</time>
   <time name="total">   66.44   66.61</time>
   <energy>
    <i name="alphaZ">     18.93414581 </i>
    <i name="ewald">  61121.33006500 </i>
    <i name="hartreedc"> -64790.00114406 </i>
    <i name="XCdc">    425.32497087 </i>
    <i name="pawpsdc">  12853.94864620 </i>
    <i name="pawaedc"> -12874.97245418 </i>
    <i name="eentropy">      0.00000000 </i>
    <i name="bandstr">  -1594.66654361 </i>
    <i name="atom">   4561.79852166 </i>
    <i name="e_fr_energy">   -278.30379232 </i>
    <i name="e_wo_entrp">   -278.30379232 </i>
    <i name="e_0_energy">   -278.30379232 </i>
   </energy>
  </scstep>
  <structure>
   <crystal>
    <varray name="basis" >
     <v>       9.81620680       0.00706583       0.00000952 </v>
     <v>       4.92084228       8.51324057       0.00001727 </v>
     <v>       0.00004787       0.00007360      49.91257838 </v>
    </varray>
    <i name="volume">   4169.34541869 </i>
    <varray name="rec_basis" >
     <v>       0.10191475      -0.05890899      -0.00000001 </v>
     <v>      -0.00008459       0.11751298      -0.00000017 </v>
     <v>      -0.00000002      -0.00000003       0.02003503 </v>
    </varray>
   </crystal>
   <varray name="positions" >
    <v>       0.00034999       0.00004198       0.43999953 </v>
    <v>       0.08291450       0.08344003       0.43999948 </v>
    <v>       0.99948794       0.25016326       0.43999963 </v>
    <v>       0.08291941       0.33325794       0.44000005 </v>
    <v>       0.00036488       0.49935238       0.44000009 </v>
    <v>       0.08454618       0.58316231       0.44000000 </v>
    <v>       0.00087229       0.74941483       0.44000008 </v>
    <v>       0.08456938       0.83200680       0.44000011 </v>
    <v>       0.24970673       0.00017488       0.44000031 </v>
    <v>       0.33302780       0.08329730       0.44000042 </v>
    <v>       0.24964665       0.24987110       0.44000020 </v>
    <v>       0.33218845       0.33221077       0.43999849 </v>
    <v>       0.25460856       0.49807955       0.43999830 </v>
    <v>       0.33325184       0.58311730       0.43999715 </v>
    <v>       0.25471243       0.74690889       0.43999984 </v>
    <v>       0.33220950       0.83523811       0.44000016 </v>
    <v>       0.49931885       0.00022678       0.43999954 </v>
    <v>       0.58343715       0.08352134       0.44000073 </v>
    <v>       0.49828564       0.25285437       0.44000247 </v>
    <v>       0.58345061       0.33001523       0.44000167 </v>
    <v>       0.58373395       0.58630501       0.44000952 </v>
    <v>       0.49839510       0.74858102       0.43999811 </v>
    <v>       0.58344669       0.83281739       0.43999873 </v>
    <v>       0.74983125       0.00018261       0.43999993 </v>
    <v>       0.83227979       0.08400217       0.43999844 </v>
    <v>       0.74693528       0.25399702       0.43999665 </v>
    <v>       0.83415067       0.33275926       0.44000077 </v>
    <v>       0.74705934       0.49888730       0.43999957 </v>
    <v>       0.83234264       0.58346304       0.43999913 </v>
    <v>       0.74986687       0.74972153       0.44000035 </v>
    <v>       0.83356637       0.83312353       0.44000059 </v>
   </varray>
  </structure>
  <varray name="forces" >
   <v>      -0.04703808      -0.02967891      -0.00010156 </v>
   <v>       0.02234852       0.02396356       0.00011645 </v>
   <v>      -0.11211547      -0.00047512       0.00026095 </v>
   <v>       0.02204001       0.04839600       0.00006073 </v>
   <v>       0.00134775       0.03283998      -0.00036301 </v>
   <v>       0.04905062      -0.05974272      -0.00016093 </v>
   <v>       0.00491228       0.02243039       0.00010391 </v>
   <v>       0.06784048      -0.04102566       0.00004622 </v>
   <v>      -0.08665257      -0.07418220      -0.00011850 </v>
   <v>       0.06108385       0.00098708      -0.00007774 </v>
   <v>       0.02650738       0.05111823      -0.00045960 </v>
   <v>      -0.03862190      -0.01707315       0.00095961 </v>
   <v>      -0.02642193       0.06128800       0.00060984 </v>
   <v>       0.32806538      -0.22042192      -0.00072551 </v>
   <v>      -0.06919379      -0.00655845      -0.00023373 </v>
   <v>       0.02982765       0.02838630      -0.00064929 </v>
   <v>       0.04732824      -0.02863006       0.00005186 </v>
   <v>      -0.11023650       0.04958282       0.00030387 </v>
   <v>       0.15674341      -0.35496232      -0.00043012 </v>
   <v>      -0.54403261      -0.04374403      -0.00150586 </v>
   <v>      -0.19994304       0.47962561      -0.00075465 </v>
   <v>       0.36174738       0.06668097       0.00218939 </v>
   <v>      -0.08143051       0.06129704      -0.00030351 </v>
   <v>       0.02918921       0.01223645      -0.00000865 </v>
   <v>       0.02500288       0.02896818      -0.00011009 </v>
   <v>      -0.07336140      -0.20839217       0.00170676 </v>
   <v>      -0.02127007       0.05817853      -0.00162085 </v>
   <v>       0.14935248       0.12652224       0.00164490 </v>
   <v>       0.00850312      -0.03719200       0.00003942 </v>
   <v>       0.01261141      -0.00100377      -0.00033871 </v>
   <v>       0.00681584      -0.02941890      -0.00013160 </v>
  </varray>
  <varray name="stress" >
   <v>      -0.06262367       0.68474562      -0.00007218 </v>
   <v>       0.68474564       0.63775838       0.00009266 </v>
   <v>      -0.00007218       0.00009266      -0.07178494 </v>
  </varray>
  <energy>
   <i name="e_fr_energy">   -280.83104978 </i>
   <i name="e_wo_entrp">   -280.83104978 </i>
   <i name="e_0_energy">      0.00000000 </i>
  </energy>
  <time name="totalsc"> 4151.38 4162.05</time>
  <eigenvalues>
   <array>
    <dimension dim="1">band</dimension>
    <dimension dim="2">kpoint</dimension>
    <dimension dim="3">spin</dimension>
    <field>eigene</field>
    <field>occ</field>
    <set>
     <set comment="spin 1">
      <set comment="kpoint 1">
       <r>  -23.2913    1.0000 </r>
       <r>  -21.9282    1.0000 </r>
       <r>  -21.9272    1.0000 </r>
       <r>  -21.9180    1.0000 </r>
       <r>  -21.9000    1.0000 </r>
       <r>  -21.8859    1.0000 </r>
       <r>  -21.0979    1.0000 </r>
       <r>  -19.1453    1.0000 </r>
       <r>  -19.1396    1.0000 </r>
       <r>  -19.0472    1.0000 </r>
       <r>  -18.9686    1.0000 </r>
       <r>  -18.9578    1.0000 </r>
       <r>  -18.4891    1.0000 </r>
       <r>  -18.0951    1.0000 </r>
       <r>  -18.0823    1.0000 </r>
       <r>  -17.5110    1.0000 </r>
       <r>  -16.8890    1.0000 </r>
       <r>  -16.8674    1.0000 </r>
       <r>  -15.9155    1.0000 </r>
       <r>  -14.4101    1.0000 </r>
       <r>  -14.3328    1.0000 </r>
       <r>  -14.3308    1.0000 </r>
       <r>  -14.1280    1.0000 </r>
       <r>  -14.1013    1.0000 </r>
       <r>  -13.0866    1.0000 </r>
       <r>  -12.8719    1.0000 </r>
       <r>  -12.7505    1.0000 </r>
       <r>  -12.7501    1.0000 </r>
       <r>  -12.3001    1.0000 </r>
       <r>  -12.2779    1.0000 </r>
       <r>  -12.1731    1.0000 </r>
       <r>  -11.3656    1.0000 </r>
       <r>  -11.3494    1.0000 </r>
       <r>  -11.3145    1.0000 </r>
       <r>  -11.2985    1.0000 </r>
       <r>  -10.7425    1.0000 </r>
       <r>  -10.7299    1.0000 </r>
       <r>  -10.2961    1.0000 </r>
       <r>   -9.7522    1.0000 </r>
       <r>   -9.7292    1.0000 </r>
       <r>   -9.7228    1.0000 </r>
       <r>   -9.7191    1.0000 </r>
       <r>   -9.7150    1.0000 </r>
       <r>   -9.6944    1.0000 </r>
       <r>   -9.6919    1.0000 </r>
       <r>   -9.0381    1.0000 </r>
       <r>   -8.9560    1.0000 </r>
       <r>   -8.9494    1.0000 </r>
       <r>   -8.9329    1.0000 </r>
       <r>   -8.7092    1.0000 </r>
       <r>   -7.9579    1.0000 </r>
       <r>   -7.4325    1.0000 </r>
       <r>   -7.3802    1.0000 </r>
       <r>   -6.5662    1.0000 </r>
       <r>   -6.5568    1.0000 </r>
       <r>   -6.5318    1.0000 </r>
       <r>   -6.5258    1.0000 </r>
       <r>   -6.4717    1.0000 </r>
       <r>   -6.2794    1.0000 </r>
       <r>   -6.1458    1.0000 </r>
       <r>   -6.1326    1.0000 </r>
       <r>   -4.3547    1.0000 </r>
       <r>   -3.7738    0.0000 </r>
       <r>   -3.3632    0.0000 </r>
       <r>   -2.0325    0.0000 </r>
       <r>   -2.0080    0.0000 </r>
       <r>   -1.7915    0.0000 </r>
       <r>   -1.0826    0.0000 </r>
       <r>   -0.8838    0.0000 </r>
       <r>   -0.8811    0.0000 </r>
       <r>   -0.7053    0.0000 </r>
       <r>   -0.6882    0.0000 </r>
       <r>   -0.3820    0.0000 </r>
       <r>    0.3708    0.0000 </r>
       <r>    0.5971    0.0000 </r>
       <r>    0.6826    0.0000 </r>
       <r>    0.7586    0.0000 </r>
       <r>    0.9534    0.0000 </r>
       <r>    1.0769    0.0000 </r>
       <r>    1.3525    0.0000 </r>
       <r>    1.4361    0.0000 </r>
       <r>    1.5277    0.0000 </r>
       <r>    1.5756    0.0000 </r>
       <r>    1.5861    0.0000 </r>
       <r>    1.5907    0.0000 </r>
       <r>    1.6425    0.0000 </r>
       <r>    1.6463    0.0000 </r>
       <r>    1.8081    0.0000 </r>
       <r>    1.9529    0.0000 </r>
       <r>    2.1187    0.0000 </r>
       <r>    2.3954    0.0000 </r>
       <r>    2.3982    0.0000 </r>
       <r>    2.4025    0.0000 </r>
       <r>    2.4153    0.0000 </r>
       <r>    2.4207    0.0000 </r>
       <r>    2.4885    0.0000 </r>
      </set>
      <set comment="kpoint 2">
       <r>  -23.2360    1.0000 </r>
       <r>  -22.3842    1.0000 </r>
       <r>  -22.1479    1.0000 </r>
       <r>  -21.9567    1.0000 </r>
       <r>  -21.5646    1.0000 </r>
       <r>  -21.3952    1.0000 </r>
       <r>  -20.8985    1.0000 </r>
       <r>  -19.8520    1.0000 </r>
       <r>  -19.6072    1.0000 </r>
       <r>  -18.9520    1.0000 </r>
       <r>  -18.9138    1.0000 </r>
       <r>  -18.6105    1.0000 </r>
       <r>  -18.2986    1.0000 </r>
       <r>  -18.1769    1.0000 </r>
       <r>  -18.1717    1.0000 </r>
       <r>  -17.2902    1.0000 </r>
       <r>  -16.6380    1.0000 </r>
       <r>  -16.4825    1.0000 </r>
       <r>  -15.6705    1.0000 </r>
       <r>  -15.1733    1.0000 </r>
       <r>  -14.8984    1.0000 </r>
       <r>  -14.6511    1.0000 </r>
       <r>  -13.9948    1.0000 </r>
       <r>  -13.6414    1.0000 </r>
       <r>  -13.3223    1.0000 </r>
       <r>  -13.0436    1.0000 </r>
       <r>  -12.8771    1.0000 </r>
       <r>  -12.3429    1.0000 </r>
       <r>  -12.3252    1.0000 </r>
       <r>  -12.1604    1.0000 </r>
       <r>  -11.9385    1.0000 </r>
       <r>  -11.5037    1.0000 </r>
       <r>  -11.4688    1.0000 </r>
       <r>  -11.2822    1.0000 </r>
       <r>  -10.9995    1.0000 </r>
       <r>  -10.5230    1.0000 </r>
       <r>  -10.3642    1.0000 </r>
       <r>  -10.2626    1.0000 </r>
       <r>  -10.2375    1.0000 </r>
       <r>   -9.9798    1.0000 </r>
       <r>   -9.8482    1.0000 </r>
       <r>   -9.8091    1.0000 </r>
       <r>   -9.7909    1.0000 </r>
       <r>   -9.3531    1.0000 </r>
       <r>   -9.3011    1.0000 </r>
       <r>   -9.1249    1.0000 </r>
       <r>   -9.1102    1.0000 </r>
       <r>   -8.9431    1.0000 </r>
       <r>   -8.6684    1.0000 </r>
       <r>   -8.6041    1.0000 </r>
       <r>   -7.8906    1.0000 </r>
       <r>   -7.4912    1.0000 </r>
       <r>   -7.4687    1.0000 </r>
       <r>   -7.3603    1.0000 </r>
       <r>   -7.1774    1.0000 </r>
       <r>   -6.4944    1.0000 </r>
       <r>   -6.4897    1.0000 </r>
       <r>   -6.3429    1.0000 </r>
       <r>   -6.1886    1.0000 </r>
       <r>   -5.8714    1.0000 </r>
       <r>   -5.6455    1.0000 </r>
       <r>   -4.2917    1.0000 </r>
       <r>   -3.8017    0.0000 </r>
       <r>   -3.4788    0.0000 </r>
       <r>   -1.9669    0.0000 </r>
       <r>   -1.9156    0.0000 </r>
       <r>   -1.8488    0.0000 </r>
       <r>   -1.6324    0.0000 </r>
       <r>   -1.2634    0.0000 </r>
       <r>   -0.9753    0.0000 </r>
       <r>   -0.3015    0.0000 </r>
       <r>   -0.2739    0.0000 </r>
       <r>    0.1130    0.0000 </r>
       <r>    0.4559    0.0000 </r>
       <r>    0.6804    0.0000 </r>
       <r>    0.7661    0.0000 </r>
       <r>    0.8414    0.0000 </r>
       <r>    0.9093    0.0000 </r>
       <r>    1.0369    0.0000 </r>
       <r>    1.1597    0.0000 </r>
       <r>    1.2908    0.0000 </r>
       <r>    1.3457    0.0000 </r>
       <r>    1.3597    0.0000 </r>
       <r>    1.4682    0.0000 </r>
       <r>    1.6150    0.0000 </r>
       <r>    1.7034    0.0000 </r>
       <r>    1.9309    0.0000 </r>
       <r>    2.0154    0.0000 </r>
       <r>    2.0331    0.0000 </r>
       <r>    2.0887    0.0000 </r>
       <r>    2.0909    0.0000 </r>
       <r>    2.0989    0.0000 </r>
       <r>    2.0993    0.0000 </r>
       <r>    2.1355    0.0000 </r>
       <r>    2.2032    0.0000 </r>
       <r>    2.2844    0.0000 </r>
      </set>
      <set comment="kpoint 3">
       <r>  -23.0787    1.0000 </r>
       <r>  -22.7557    1.0000 </r>
       <r>  -22.2650    1.0000 </r>
       <r>  -22.0202    1.0000 </r>
       <r>  -21.1051    1.0000 </r>
       <r>  -20.9148    1.0000 </r>
       <r>  -20.5247    1.0000 </r>
       <r>  -20.4672    1.0000 </r>
       <r>  -20.0923    1.0000 </r>
       <r>  -19.5004    1.0000 </r>
       <r>  -18.8149    1.0000 </r>
       <r>  -18.7459    1.0000 </r>
       <r>  -18.5270    1.0000 </r>
       <r>  -18.0013    1.0000 </r>
       <r>  -17.3571    1.0000 </r>
       <r>  -16.8483    1.0000 </r>
       <r>  -16.1315    1.0000 </r>
       <r>  -16.0451    1.0000 </r>
       <r>  -15.9515    1.0000 </r>
       <r>  -15.6844    1.0000 </r>
       <r>  -15.3224    1.0000 </r>
       <r>  -15.0156    1.0000 </r>
       <r>  -14.2397    1.0000 </r>
       <r>  -13.6622    1.0000 </r>
       <r>  -13.3995    1.0000 </r>
       <r>  -13.2978    1.0000 </r>
       <r>  -12.9599    1.0000 </r>
       <r>  -12.7185    1.0000 </r>
       <r>  -12.2661    1.0000 </r>
       <r>  -11.6210    1.0000 </r>
       <r>  -11.5157    1.0000 </r>
       <r>  -11.1665    1.0000 </r>
       <r>  -11.0902    1.0000 </r>
       <r>  -10.9902    1.0000 </r>
       <r>  -10.7817    1.0000 </r>
       <r>  -10.7089    1.0000 </r>
       <r>  -10.5602    1.0000 </r>
       <r>  -10.4626    1.0000 </r>
       <r>  -10.1561    1.0000 </r>
       <r>  -10.1169    1.0000 </r>
       <r>  -10.0439    1.0000 </r>
       <r>   -9.8780    1.0000 </r>
       <r>   -9.7924    1.0000 </r>
       <r>   -9.6814    1.0000 </r>
       <r>   -9.0573    1.0000 </r>
       <r>   -9.0023    1.0000 </r>
       <r>   -8.7688    1.0000 </r>
       <r>   -8.6051    1.0000 </r>
       <r>   -8.4784    1.0000 </r>
       <r>   -8.2708    1.0000 </r>
       <r>   -8.1265    1.0000 </r>
       <r>   -8.1167    1.0000 </r>
       <r>   -7.7363    1.0000 </r>
       <r>   -7.5944    1.0000 </r>
       <r>   -7.3436    1.0000 </r>
       <r>   -7.0961    1.0000 </r>
       <r>   -6.4056    1.0000 </r>
       <r>   -6.3688    1.0000 </r>
       <r>   -6.2884    1.0000 </r>
       <r>   -5.5739    1.0000 </r>
       <r>   -4.9160    1.0000 </r>
       <r>   -4.0843    1.0000 </r>
       <r>   -3.8473    0.0000 </r>
       <r>   -3.6781    0.0000 </r>
       <r>   -2.6640    0.0000 </r>
       <r>   -2.2418    0.0000 </r>
       <r>   -1.6777    0.0000 </r>
       <r>   -1.5488    0.0000 </r>
       <r>   -1.2373    0.0000 </r>
       <r>   -0.7021    0.0000 </r>
       <r>   -0.0616    0.0000 </r>
       <r>    0.0535    0.0000 </r>
       <r>    0.3506    0.0000 </r>
       <r>    0.7058    0.0000 </r>
       <r>    0.9069    0.0000 </r>
       <r>    0.9305    0.0000 </r>
       <r>    1.0165    0.0000 </r>
       <r>    1.0588    0.0000 </r>
       <r>    1.0909    0.0000 </r>
       <r>    1.1154    0.0000 </r>
       <r>    1.1300    0.0000 </r>
       <r>    1.1836    0.0000 </r>
       <r>    1.2882    0.0000 </r>
       <r>    1.3474    0.0000 </r>
       <r>    1.4115    0.0000 </r>
       <r>    1.4323    0.0000 </r>
       <r>    1.5088    0.0000 </r>
       <r>    1.6401    0.0000 </r>
       <r>    1.7047    0.0000 </r>
       <r>    1.7136    0.0000 </r>
       <r>    1.8266    0.0000 </r>
       <r>    1.8640    0.0000 </r>
       <r>    1.9274    0.0000 </r>
       <r>    1.9319    0.0000 </r>
       <r>    2.1252    0.0000 </r>
       <r>    2.1733    0.0000 </r>
      </set>
      <set comment="kpoint 4">
       <r>  -23.2366    1.0000 </r>
       <r>  -22.3830    1.0000 </r>
       <r>  -22.1425    1.0000 </r>
       <r>  -21.9637    1.0000 </r>
       <r>  -21.5609    1.0000 </r>
       <r>  -21.3956    1.0000 </r>
       <r>  -20.9038    1.0000 </r>
       <r>  -19.8550    1.0000 </r>
       <r>  -19.6039    1.0000 </r>
       <r>  -18.9374    1.0000 </r>
       <r>  -18.9195    1.0000 </r>
       <r>  -18.6107    1.0000 </r>
       <r>  -18.2916    1.0000 </r>
       <r>  -18.1886    1.0000 </r>
       <r>  -18.1718    1.0000 </r>
       <r>  -17.2901    1.0000 </r>
       <r>  -16.6261    1.0000 </r>
       <r>  -16.4929    1.0000 </r>
       <r>  -15.6784    1.0000 </r>
       <r>  -15.1829    1.0000 </r>
       <r>  -14.8967    1.0000 </r>
       <r>  -14.6509    1.0000 </r>
       <r>  -13.9834    1.0000 </r>
       <r>  -13.6389    1.0000 </r>
       <r>  -13.3157    1.0000 </r>
       <r>  -13.0364    1.0000 </r>
       <r>  -12.8857    1.0000 </r>
       <r>  -12.3416    1.0000 </r>
       <r>  -12.3152    1.0000 </r>
       <r>  -12.1696    1.0000 </r>
       <r>  -11.9430    1.0000 </r>
       <r>  -11.5007    1.0000 </r>
       <r>  -11.4777    1.0000 </r>
       <r>  -11.2827    1.0000 </r>
       <r>  -10.9828    1.0000 </r>
       <r>  -10.5081    1.0000 </r>
       <r>  -10.3760    1.0000 </r>
       <r>  -10.2666    1.0000 </r>
       <r>  -10.2630    1.0000 </r>
       <r>   -9.9777    1.0000 </r>
       <r>   -9.8596    1.0000 </r>
       <r>   -9.7898    1.0000 </r>
       <r>   -9.7896    1.0000 </r>
       <r>   -9.3611    1.0000 </r>
       <r>   -9.3014    1.0000 </r>
       <r>   -9.1234    1.0000 </r>
       <r>   -9.1184    1.0000 </r>
       <r>   -8.9371    1.0000 </r>
       <r>   -8.6741    1.0000 </r>
       <r>   -8.5923    1.0000 </r>
       <r>   -7.8959    1.0000 </r>
       <r>   -7.4995    1.0000 </r>
       <r>   -7.4490    1.0000 </r>
       <r>   -7.3666    1.0000 </r>
       <r>   -7.1757    1.0000 </r>
       <r>   -6.5020    1.0000 </r>
       <r>   -6.4773    1.0000 </r>
       <r>   -6.3382    1.0000 </r>
       <r>   -6.1763    1.0000 </r>
       <r>   -5.8758    1.0000 </r>
       <r>   -5.6561    1.0000 </r>
       <r>   -4.2911    1.0000 </r>
       <r>   -3.8719    0.0778 </r>
       <r>   -3.4098    0.0000 </r>
       <r>   -1.9740    0.0000 </r>
       <r>   -1.9163    0.0000 </r>
       <r>   -1.8362    0.0000 </r>
       <r>   -1.6444    0.0000 </r>
       <r>   -1.2557    0.0000 </r>
       <r>   -0.9719    0.0000 </r>
       <r>   -0.3017    0.0000 </r>
       <r>   -0.2776    0.0000 </r>
       <r>    0.1062    0.0000 </r>
       <r>    0.4558    0.0000 </r>
       <r>    0.6801    0.0000 </r>
       <r>    0.7658    0.0000 </r>
       <r>    0.8411    0.0000 </r>
       <r>    0.9049    0.0000 </r>
       <r>    1.0367    0.0000 </r>
       <r>    1.1595    0.0000 </r>
       <r>    1.2947    0.0000 </r>
       <r>    1.3510    0.0000 </r>
       <r>    1.3619    0.0000 </r>
       <r>    1.4680    0.0000 </r>
       <r>    1.6147    0.0000 </r>
       <r>    1.6989    0.0000 </r>
       <r>    1.9263    0.0000 </r>
       <r>    2.0108    0.0000 </r>
       <r>    2.0329    0.0000 </r>
       <r>    2.0864    0.0000 </r>
       <r>    2.0924    0.0000 </r>
       <r>    2.0997    0.0000 </r>
       <r>    2.1023    0.0000 </r>
       <r>    2.1380    0.0000 </r>
       <r>    2.2032    0.0000 </r>
       <r>    2.2793    0.0000 </r>
      </set>
      <set comment="kpoint 5">
       <r>  -23.2367    1.0000 </r>
       <r>  -22.3829    1.0000 </r>
       <r>  -22.1414    1.0000 </r>
       <r>  -21.9650    1.0000 </r>
       <r>  -21.5600    1.0000 </r>
       <r>  -21.3961    1.0000 </r>
       <r>  -20.9044    1.0000 </r>
       <r>  -19.8547    1.0000 </r>
       <r>  -19.6041    1.0000 </r>
       <r>  -18.9360    1.0000 </r>
       <r>  -18.9196    1.0000 </r>
       <r>  -18.6102    1.0000 </r>
       <r>  -18.2913    1.0000 </r>
       <r>  -18.1884    1.0000 </r>
       <r>  -18.1740    1.0000 </r>
       <r>  -17.2891    1.0000 </r>
       <r>  -16.6234    1.0000 </r>
       <r>  -16.4953    1.0000 </r>
       <r>  -15.6796    1.0000 </r>
       <r>  -15.1851    1.0000 </r>
       <r>  -14.8958    1.0000 </r>
       <r>  -14.6511    1.0000 </r>
       <r>  -13.9815    1.0000 </r>
       <r>  -13.6388    1.0000 </r>
       <r>  -13.3139    1.0000 </r>
       <r>  -13.0346    1.0000 </r>
       <r>  -12.8874    1.0000 </r>
       <r>  -12.3421    1.0000 </r>
       <r>  -12.3164    1.0000 </r>
       <r>  -12.1708    1.0000 </r>
       <r>  -11.9433    1.0000 </r>
       <r>  -11.4986    1.0000 </r>
       <r>  -11.4786    1.0000 </r>
       <r>  -11.2827    1.0000 </r>
       <r>  -10.9799    1.0000 </r>
       <r>  -10.5071    1.0000 </r>
       <r>  -10.3764    1.0000 </r>
       <r>  -10.2705    1.0000 </r>
       <r>  -10.2631    1.0000 </r>
       <r>   -9.9770    1.0000 </r>
       <r>   -9.8620    1.0000 </r>
       <r>   -9.7903    1.0000 </r>
       <r>   -9.7862    1.0000 </r>
       <r>   -9.3622    1.0000 </r>
       <r>   -9.3009    1.0000 </r>
       <r>   -9.1237    1.0000 </r>
       <r>   -9.1180    1.0000 </r>
       <r>   -8.9389    1.0000 </r>
       <r>   -8.6745    1.0000 </r>
       <r>   -8.5899    1.0000 </r>
       <r>   -7.8988    1.0000 </r>
       <r>   -7.5011    1.0000 </r>
       <r>   -7.4446    1.0000 </r>
       <r>   -7.3666    1.0000 </r>
       <r>   -7.1762    1.0000 </r>
       <r>   -6.5015    1.0000 </r>
       <r>   -6.4769    1.0000 </r>
       <r>   -6.3367    1.0000 </r>
       <r>   -6.1766    1.0000 </r>
       <r>   -5.8775    1.0000 </r>
       <r>   -5.6560    1.0000 </r>
       <r>   -4.2908    1.0000 </r>
       <r>   -3.8757    0.0931 </r>
       <r>   -3.4060    0.0000 </r>
       <r>   -1.9728    0.0000 </r>
       <r>   -1.9168    0.0000 </r>
       <r>   -1.8352    0.0000 </r>
       <r>   -1.6471    0.0000 </r>
       <r>   -1.2550    0.0000 </r>
       <r>   -0.9711    0.0000 </r>
       <r>   -0.3018    0.0000 </r>
       <r>   -0.2774    0.0000 </r>
       <r>    0.1049    0.0000 </r>
       <r>    0.4557    0.0000 </r>
       <r>    0.6801    0.0000 </r>
       <r>    0.7658    0.0000 </r>
       <r>    0.8410    0.0000 </r>
       <r>    0.9044    0.0000 </r>
       <r>    1.0367    0.0000 </r>
       <r>    1.1595    0.0000 </r>
       <r>    1.2952    0.0000 </r>
       <r>    1.3515    0.0000 </r>
       <r>    1.3620    0.0000 </r>
       <r>    1.4679    0.0000 </r>
       <r>    1.6147    0.0000 </r>
       <r>    1.6983    0.0000 </r>
       <r>    1.9258    0.0000 </r>
       <r>    2.0103    0.0000 </r>
       <r>    2.0329    0.0000 </r>
       <r>    2.0859    0.0000 </r>
       <r>    2.0930    0.0000 </r>
       <r>    2.1001    0.0000 </r>
       <r>    2.1024    0.0000 </r>
       <r>    2.1380    0.0000 </r>
       <r>    2.2031    0.0000 </r>
       <r>    2.2785    0.0000 </r>
      </set>
      <set comment="kpoint 6">
       <r>  -23.1288    1.0000 </r>
       <r>  -22.6194    1.0000 </r>
       <r>  -22.4108    1.0000 </r>
       <r>  -21.7417    1.0000 </r>
       <r>  -21.5108    1.0000 </r>
       <r>  -20.8721    1.0000 </r>
       <r>  -20.6501    1.0000 </r>
       <r>  -20.3698    1.0000 </r>
       <r>  -19.7103    1.0000 </r>
       <r>  -19.5010    1.0000 </r>
       <r>  -19.2039    1.0000 </r>
       <r>  -18.6887    1.0000 </r>
       <r>  -18.1197    1.0000 </r>
       <r>  -17.9855    1.0000 </r>
       <r>  -17.6093    1.0000 </r>
       <r>  -17.0503    1.0000 </r>
       <r>  -16.4991    1.0000 </r>
       <r>  -15.8079    1.0000 </r>
       <r>  -15.7574    1.0000 </r>
       <r>  -15.7261    1.0000 </r>
       <r>  -15.3185    1.0000 </r>
       <r>  -14.7242    1.0000 </r>
       <r>  -14.2032    1.0000 </r>
       <r>  -13.8179    1.0000 </r>
       <r>  -13.6364    1.0000 </r>
       <r>  -13.2086    1.0000 </r>
       <r>  -12.6802    1.0000 </r>
       <r>  -12.5572    1.0000 </r>
       <r>  -12.2926    1.0000 </r>
       <r>  -11.8365    1.0000 </r>
       <r>  -11.3982    1.0000 </r>
       <r>  -11.3719    1.0000 </r>
       <r>  -11.1600    1.0000 </r>
       <r>  -11.1514    1.0000 </r>
       <r>  -10.8820    1.0000 </r>
       <r>  -10.6868    1.0000 </r>
       <r>  -10.5356    1.0000 </r>
       <r>  -10.3200    1.0000 </r>
       <r>  -10.2881    1.0000 </r>
       <r>  -10.0780    1.0000 </r>
       <r>   -9.9215    1.0000 </r>
       <r>   -9.7088    1.0000 </r>
       <r>   -9.5779    1.0000 </r>
       <r>   -9.5125    1.0000 </r>
       <r>   -9.5050    1.0000 </r>
       <r>   -9.2729    1.0000 </r>
       <r>   -8.7619    1.0000 </r>
       <r>   -8.6282    1.0000 </r>
       <r>   -8.5187    1.0000 </r>
       <r>   -8.3443    1.0000 </r>
       <r>   -8.0158    1.0000 </r>
       <r>   -7.9789    1.0000 </r>
       <r>   -7.6294    1.0000 </r>
       <r>   -7.3766    1.0000 </r>
       <r>   -7.2895    1.0000 </r>
       <r>   -7.0723    1.0000 </r>
       <r>   -6.8104    1.0000 </r>
       <r>   -6.4069    1.0000 </r>
       <r>   -5.8511    1.0000 </r>
       <r>   -5.6886    1.0000 </r>
       <r>   -5.0936    1.0000 </r>
       <r>   -4.1100    1.0000 </r>
       <r>   -3.9359    0.1566 </r>
       <r>   -3.5430    0.0000 </r>
       <r>   -2.5843    0.0000 </r>
       <r>   -2.1112    0.0000 </r>
       <r>   -1.8875    0.0000 </r>
       <r>   -1.5254    0.0000 </r>
       <r>   -1.0957    0.0000 </r>
       <r>   -0.6993    0.0000 </r>
       <r>   -0.1412    0.0000 </r>
       <r>   -0.0598    0.0000 </r>
       <r>    0.5379    0.0000 </r>
       <r>    0.6265    0.0000 </r>
       <r>    0.6452    0.0000 </r>
       <r>    0.7195    0.0000 </r>
       <r>    0.8469    0.0000 </r>
       <r>    0.9330    0.0000 </r>
       <r>    1.0085    0.0000 </r>
       <r>    1.2047    0.0000 </r>
       <r>    1.3269    0.0000 </r>
       <r>    1.3395    0.0000 </r>
       <r>    1.4320    0.0000 </r>
       <r>    1.4425    0.0000 </r>
       <r>    1.4715    0.0000 </r>
       <r>    1.6263    0.0000 </r>
       <r>    1.6758    0.0000 </r>
       <r>    1.6806    0.0000 </r>
       <r>    1.7605    0.0000 </r>
       <r>    1.7654    0.0000 </r>
       <r>    1.7776    0.0000 </r>
       <r>    1.8356    0.0000 </r>
       <r>    1.8402    0.0000 </r>
       <r>    1.8620    0.0000 </r>
       <r>    1.9069    0.0000 </r>
       <r>    2.0307    0.0000 </r>
      </set>
      <set comment="kpoint 7">
       <r>  -22.9662    1.0000 </r>
       <r>  -22.8475    1.0000 </r>
       <r>  -22.5061    1.0000 </r>
       <r>  -21.7024    1.0000 </r>
       <r>  -21.2164    1.0000 </r>
       <r>  -20.9656    1.0000 </r>
       <r>  -20.3636    1.0000 </r>
       <r>  -20.2075    1.0000 </r>
       <r>  -20.0286    1.0000 </r>
       <r>  -19.7882    1.0000 </r>
       <r>  -19.5149    1.0000 </r>
       <r>  -18.8536    1.0000 </r>
       <r>  -17.9839    1.0000 </r>
       <r>  -17.6935    1.0000 </r>
       <r>  -17.2226    1.0000 </r>
       <r>  -16.6494    1.0000 </r>
       <r>  -16.4310    1.0000 </r>
       <r>  -16.3847    1.0000 </r>
       <r>  -16.1665    1.0000 </r>
       <r>  -15.4099    1.0000 </r>
       <r>  -15.0427    1.0000 </r>
       <r>  -14.6952    1.0000 </r>
       <r>  -14.3358    1.0000 </r>
       <r>  -14.1199    1.0000 </r>
       <r>  -13.8295    1.0000 </r>
       <r>  -13.6777    1.0000 </r>
       <r>  -12.6256    1.0000 </r>
       <r>  -12.4663    1.0000 </r>
       <r>  -11.9610    1.0000 </r>
       <r>  -11.6260    1.0000 </r>
       <r>  -11.5019    1.0000 </r>
       <r>  -11.2149    1.0000 </r>
       <r>  -10.9512    1.0000 </r>
       <r>  -10.8137    1.0000 </r>
       <r>  -10.7417    1.0000 </r>
       <r>  -10.6801    1.0000 </r>
       <r>  -10.5283    1.0000 </r>
       <r>  -10.4716    1.0000 </r>
       <r>  -10.4347    1.0000 </r>
       <r>  -10.2851    1.0000 </r>
       <r>  -10.0624    1.0000 </r>
       <r>  -10.0260    1.0000 </r>
       <r>   -9.6337    1.0000 </r>
       <r>   -9.4780    1.0000 </r>
       <r>   -9.1552    1.0000 </r>
       <r>   -8.9344    1.0000 </r>
       <r>   -8.9027    1.0000 </r>
       <r>   -8.6678    1.0000 </r>
       <r>   -8.4515    1.0000 </r>
       <r>   -8.2099    1.0000 </r>
       <r>   -7.9523    1.0000 </r>
       <r>   -7.8226    1.0000 </r>
       <r>   -7.7758    1.0000 </r>
       <r>   -7.6727    1.0000 </r>
       <r>   -7.3812    1.0000 </r>
       <r>   -7.2691    1.0000 </r>
       <r>   -7.0816    1.0000 </r>
       <r>   -6.5289    1.0000 </r>
       <r>   -5.7721    1.0000 </r>
       <r>   -5.4731    1.0000 </r>
       <r>   -4.7774    1.0000 </r>
       <r>   -3.9657    1.0000 </r>
       <r>   -3.8590    0.0000 </r>
       <r>   -3.6407    0.0000 </r>
       <r>   -3.0577    0.0000 </r>
       <r>   -2.2928    0.0000 </r>
       <r>   -2.0711    0.0000 </r>
       <r>   -1.4971    0.0000 </r>
       <r>   -0.6686    0.0000 </r>
       <r>   -0.2512    0.0000 </r>
       <r>    0.1427    0.0000 </r>
       <r>    0.1812    0.0000 </r>
       <r>    0.2220    0.0000 </r>
       <r>    0.3732    0.0000 </r>
       <r>    0.5993    0.0000 </r>
       <r>    0.6872    0.0000 </r>
       <r>    0.9426    0.0000 </r>
       <r>    0.9540    0.0000 </r>
       <r>    1.1802    0.0000 </r>
       <r>    1.1805    0.0000 </r>
       <r>    1.2650    0.0000 </r>
       <r>    1.2654    0.0000 </r>
       <r>    1.3408    0.0000 </r>
       <r>    1.3423    0.0000 </r>
       <r>    1.3468    0.0000 </r>
       <r>    1.5284    0.0000 </r>
       <r>    1.5363    0.0000 </r>
       <r>    1.5926    0.0000 </r>
       <r>    1.6242    0.0000 </r>
       <r>    1.6580    0.0000 </r>
       <r>    1.6602    0.0000 </r>
       <r>    1.6812    0.0000 </r>
       <r>    1.7531    0.0000 </r>
       <r>    1.8000    0.0000 </r>
       <r>    1.9489    0.0000 </r>
       <r>    1.9572    0.0000 </r>
      </set>
      <set comment="kpoint 8">
       <r>  -23.1285    1.0000 </r>
       <r>  -22.6202    1.0000 </r>
       <r>  -22.4102    1.0000 </r>
       <r>  -21.7432    1.0000 </r>
       <r>  -21.5096    1.0000 </r>
       <r>  -20.8721    1.0000 </r>
       <r>  -20.6477    1.0000 </r>
       <r>  -20.3716    1.0000 </r>
       <r>  -19.7095    1.0000 </r>
       <r>  -19.5027    1.0000 </r>
       <r>  -19.2043    1.0000 </r>
       <r>  -18.6882    1.0000 </r>
       <r>  -18.1176    1.0000 </r>
       <r>  -17.9877    1.0000 </r>
       <r>  -17.6084    1.0000 </r>
       <r>  -17.0532    1.0000 </r>
       <r>  -16.4986    1.0000 </r>
       <r>  -15.8056    1.0000 </r>
       <r>  -15.7569    1.0000 </r>
       <r>  -15.7240    1.0000 </r>
       <r>  -15.3175    1.0000 </r>
       <r>  -14.7257    1.0000 </r>
       <r>  -14.2073    1.0000 </r>
       <r>  -13.8182    1.0000 </r>
       <r>  -13.6365    1.0000 </r>
       <r>  -13.2054    1.0000 </r>
       <r>  -12.6800    1.0000 </r>
       <r>  -12.5569    1.0000 </r>
       <r>  -12.2953    1.0000 </r>
       <r>  -11.8388    1.0000 </r>
       <r>  -11.3939    1.0000 </r>
       <r>  -11.3742    1.0000 </r>
       <r>  -11.1594    1.0000 </r>
       <r>  -11.1512    1.0000 </r>
       <r>  -10.8835    1.0000 </r>
       <r>  -10.6843    1.0000 </r>
       <r>  -10.5361    1.0000 </r>
       <r>  -10.3196    1.0000 </r>
       <r>  -10.2861    1.0000 </r>
       <r>  -10.0810    1.0000 </r>
       <r>   -9.9223    1.0000 </r>
       <r>   -9.7093    1.0000 </r>
       <r>   -9.5798    1.0000 </r>
       <r>   -9.5136    1.0000 </r>
       <r>   -9.5002    1.0000 </r>
       <r>   -9.2722    1.0000 </r>
       <r>   -8.7630    1.0000 </r>
       <r>   -8.6268    1.0000 </r>
       <r>   -8.5186    1.0000 </r>
       <r>   -8.3429    1.0000 </r>
       <r>   -8.0108    1.0000 </r>
       <r>   -7.9797    1.0000 </r>
       <r>   -7.6364    1.0000 </r>
       <r>   -7.3761    1.0000 </r>
       <r>   -7.2884    1.0000 </r>
       <r>   -7.0742    1.0000 </r>
       <r>   -6.8107    1.0000 </r>
       <r>   -6.4066    1.0000 </r>
       <r>   -5.8526    1.0000 </r>
       <r>   -5.6865    1.0000 </r>
       <r>   -5.0937    1.0000 </r>
       <r>   -4.1103    1.0000 </r>
       <r>   -3.9284    0.1266 </r>
       <r>   -3.5505    0.0000 </r>
       <r>   -2.5834    0.0000 </r>
       <r>   -2.1142    0.0000 </r>
       <r>   -1.8865    0.0000 </r>
       <r>   -1.5249    0.0000 </r>
       <r>   -1.0935    0.0000 </r>
       <r>   -0.6999    0.0000 </r>
       <r>   -0.1411    0.0000 </r>
       <r>   -0.0634    0.0000 </r>
       <r>    0.5405    0.0000 </r>
       <r>    0.6265    0.0000 </r>
       <r>    0.6460    0.0000 </r>
       <r>    0.7195    0.0000 </r>
       <r>    0.8470    0.0000 </r>
       <r>    0.9331    0.0000 </r>
       <r>    1.0086    0.0000 </r>
       <r>    1.2048    0.0000 </r>
       <r>    1.3270    0.0000 </r>
       <r>    1.3422    0.0000 </r>
       <r>    1.4321    0.0000 </r>
       <r>    1.4427    0.0000 </r>
       <r>    1.4712    0.0000 </r>
       <r>    1.6264    0.0000 </r>
       <r>    1.6761    0.0000 </r>
       <r>    1.6804    0.0000 </r>
       <r>    1.7608    0.0000 </r>
       <r>    1.7651    0.0000 </r>
       <r>    1.7777    0.0000 </r>
       <r>    1.8359    0.0000 </r>
       <r>    1.8400    0.0000 </r>
       <r>    1.8613    0.0000 </r>
       <r>    1.9062    0.0000 </r>
       <r>    2.0310    0.0000 </r>
      </set>
      <set comment="kpoint 9">
       <r>  -23.0826    1.0000 </r>
       <r>  -22.7506    1.0000 </r>
       <r>  -22.2591    1.0000 </r>
       <r>  -22.0253    1.0000 </r>
       <r>  -21.1033    1.0000 </r>
       <r>  -20.9196    1.0000 </r>
       <r>  -20.5264    1.0000 </r>
       <r>  -20.4767    1.0000 </r>
       <r>  -20.0872    1.0000 </r>
       <r>  -19.5039    1.0000 </r>
       <r>  -18.8015    1.0000 </r>
       <r>  -18.7394    1.0000 </r>
       <r>  -18.5109    1.0000 </r>
       <r>  -18.0112    1.0000 </r>
       <r>  -17.3734    1.0000 </r>
       <r>  -16.8492    1.0000 </r>
       <r>  -16.1268    1.0000 </r>
       <r>  -16.0510    1.0000 </r>
       <r>  -15.9550    1.0000 </r>
       <r>  -15.6877    1.0000 </r>
       <r>  -15.3164    1.0000 </r>
       <r>  -15.0292    1.0000 </r>
       <r>  -14.2451    1.0000 </r>
       <r>  -13.6632    1.0000 </r>
       <r>  -13.3854    1.0000 </r>
       <r>  -13.2897    1.0000 </r>
       <r>  -12.9529    1.0000 </r>
       <r>  -12.6991    1.0000 </r>
       <r>  -12.2531    1.0000 </r>
       <r>  -11.6261    1.0000 </r>
       <r>  -11.5214    1.0000 </r>
       <r>  -11.1686    1.0000 </r>
       <r>  -11.0930    1.0000 </r>
       <r>  -10.9960    1.0000 </r>
       <r>  -10.7924    1.0000 </r>
       <r>  -10.7067    1.0000 </r>
       <r>  -10.5566    1.0000 </r>
       <r>  -10.4854    1.0000 </r>
       <r>  -10.1533    1.0000 </r>
       <r>  -10.1143    1.0000 </r>
       <r>  -10.0469    1.0000 </r>
       <r>   -9.8754    1.0000 </r>
       <r>   -9.7784    1.0000 </r>
       <r>   -9.7039    1.0000 </r>
       <r>   -9.0665    1.0000 </r>
       <r>   -8.9991    1.0000 </r>
       <r>   -8.7708    1.0000 </r>
       <r>   -8.6052    1.0000 </r>
       <r>   -8.4557    1.0000 </r>
       <r>   -8.2915    1.0000 </r>
       <r>   -8.1370    1.0000 </r>
       <r>   -8.1185    1.0000 </r>
       <r>   -7.7353    1.0000 </r>
       <r>   -7.5661    1.0000 </r>
[...]
       <r>     2.8420     0.0000    96.0000 </r>
       <r>     2.9365     0.0000    96.0000 </r>
       <r>     3.0311     0.0000    96.0000 </r>
       <r>     3.1257     0.0000    96.0000 </r>
       <r>     3.2202     0.0000    96.0000 </r>
       <r>     3.3148     0.0000    96.0000 </r>
       <r>     3.4094     0.0000    96.0000 </r>
       <r>     3.5039     0.0000    96.0000 </r>
       <r>     3.5985     0.0000    96.0000 </r>
       <r>     3.6930     0.0000    96.0000 </r>
       <r>     3.7876     0.0000    96.0000 </r>
      </set>
      <set comment="spin 2">
       <r>   -24.5808     0.0000     0.0000 </r>
       <r>   -24.4862     0.0000     0.0000 </r>
       <r>   -24.3917     0.0000     0.0000 </r>
       <r>   -24.2971     0.0000     0.0000 </r>
       <r>   -24.2025     0.0000     0.0000 </r>
       <r>   -24.1080     0.0000     0.0000 </r>
       <r>   -24.0134     0.0000     0.0000 </r>
       <r>   -23.9188     0.0000     0.0000 </r>
       <r>   -23.8243     0.0000     0.0000 </r>
       <r>   -23.7297     0.0000     0.0000 </r>
       <r>   -23.6352     0.0000     0.0000 </r>
       <r>   -23.5406     0.0000     0.0000 </r>
       <r>   -23.4460     0.0000     0.0000 </r>
       <r>   -23.3515     0.0000     0.0000 </r>
       <r>   -23.2569     1.5912     0.0157 </r>
       <r>   -23.1624     2.7513     0.2697 </r>
       <r>   -23.0678     5.7856     0.5708 </r>
       <r>   -22.9732     2.0137     0.9396 </r>
       <r>   -22.8787     0.0000     1.0000 </r>
       <r>   -22.7841     3.1814     1.1305 </r>
       <r>   -22.6895     2.2812     1.4571 </r>
       <r>   -22.5950     1.2971     1.6210 </r>
       <r>   -22.5004     1.1785     1.7380 </r>
       <r>   -22.4059     3.5020     2.0702 </r>
       <r>   -22.3113     3.3674     2.3830 </r>
       <r>   -22.2167     2.3860     2.6935 </r>
       <r>   -22.1222     1.3190     2.8598 </r>
       <r>   -22.0276     0.7344     2.9580 </r>
       <r>   -21.9331     9.1698     3.1545 </r>
       <r>   -21.8385     2.8745     3.5506 </r>
       <r>   -21.7439     2.2527     3.7931 </r>
       <r>   -21.6494     0.7190     4.0809 </r>
       <r>   -21.5548     1.0213     4.1632 </r>
       <r>   -21.4603     1.6004     4.3883 </r>
       <r>   -21.3657     2.0767     4.5631 </r>
       <r>   -21.2711     2.5862     4.7835 </r>
       <r>   -21.1766     2.2815     5.0709 </r>
       <r>   -21.0820     1.4015     5.3035 </r>
       <r>   -20.9874     1.2468     5.3934 </r>
       <r>   -20.8929     7.8982     5.9697 </r>
       <r>   -20.7983     1.1123     6.1812 </r>
       <r>   -20.7038     1.2540     6.2931 </r>
       <r>   -20.6092     1.4590     6.4188 </r>
       <r>   -20.5146     2.0811     6.5862 </r>
       <r>   -20.4201     3.6838     6.8890 </r>
       <r>   -20.3255     3.1086     7.2730 </r>
       <r>   -20.2310     2.5435     7.5402 </r>
       <r>   -20.1364     0.6584     7.7099 </r>
       <r>   -20.0418     3.8398     7.8489 </r>
       <r>   -19.9473     2.4923     8.1468 </r>
       <r>   -19.8527     2.0906     8.3635 </r>
       <r>   -19.7582     1.5649     8.5321 </r>
       <r>   -19.6636     2.9873     8.8053 </r>
       <r>   -19.5690     2.7424     9.1445 </r>
       <r>   -19.4745     2.6324     9.4782 </r>
       <r>   -19.3799     1.9828     9.6811 </r>
       <r>   -19.2853     1.7793     9.8590 </r>
       <r>   -19.1908     1.5758    10.0176 </r>
       <r>   -19.0962     1.9101    10.1791 </r>
       <r>   -19.0017     3.0304    10.3936 </r>
       <r>   -18.9071     5.9090    10.8296 </r>
       <r>   -18.8125     0.8593    11.0030 </r>
       <r>   -18.7180     4.2874    11.4582 </r>
       <r>   -18.6234     4.4359    11.8552 </r>
       <r>   -18.5289     0.0000    12.0000 </r>
       <r>   -18.4343     1.0608    12.0369 </r>
       <r>   -18.3397     2.2891    12.1953 </r>
       <r>   -18.2452     3.0317    12.4657 </r>
       <r>   -18.1506     5.1423    12.7496 </r>
       <r>   -18.0560     3.5982    13.2657 </r>
       <r>   -17.9615    12.3201    13.6814 </r>
       <r>   -17.8669     2.3772    13.9313 </r>
       <r>   -17.7724     1.9157    14.1343 </r>
       <r>   -17.6778     1.6240    14.2939 </r>
       <r>   -17.5832     0.6050    14.4074 </r>
       <r>   -17.4887     1.0294    14.4833 </r>
       <r>   -17.3941     1.8339    14.6151 </r>
       <r>   -17.2996     3.1838    14.8820 </r>
       <r>   -17.2050     3.6482    15.1400 </r>
       <r>   -17.1104     1.0912    15.2601 </r>
       <r>   -17.0159     1.1263    15.3644 </r>
       <r>   -16.9213     1.3311    15.4800 </r>
       <r>   -16.8268     1.7053    15.6185 </r>
       <r>   -16.7322     2.5920    15.8720 </r>
       <r>   -16.6376     1.9082    16.0847 </r>
       <r>   -16.5431     1.9029    16.2989 </r>
       <r>   -16.4485     3.2240    16.4782 </r>
       <r>   -16.3539     2.8349    16.8869 </r>
       <r>   -16.2594     2.8951    17.1579 </r>
       <r>   -16.1648     2.9553    17.4345 </r>
       <r>   -16.0703     3.6884    17.7933 </r>
       <r>   -15.9757     3.6598    18.1486 </r>
       <r>   -15.8811     2.1694    18.4303 </r>
       <r>   -15.7866     1.8803    18.6124 </r>
       <r>   -15.6920     3.0204    18.8276 </r>
       <r>   -15.5975     2.8253    19.2471 </r>
       <r>   -15.5029     2.2267    19.4859 </r>
       <r>   -15.4083     1.6281    19.6682 </r>
       <r>   -15.3138     0.5915    19.8017 </r>
       <r>   -15.2192     3.8447    20.0966 </r>
       <r>   -15.1246     2.8575    20.4141 </r>
       <r>   -15.0301     3.2571    20.6465 </r>
       <r>   -14.9355     2.0689    20.8405 </r>
       <r>   -14.8410     2.4054    21.0533 </r>
       <r>   -14.7464     2.9373    21.3059 </r>
       <r>   -14.6518     3.2778    21.7385 </r>
       <r>   -14.5573     0.8547    21.9008 </r>
       <r>   -14.4627     0.5025    21.9650 </r>
       <r>   -14.3682     0.1621    21.9960 </r>
       <r>   -14.2736     3.2021    22.1434 </r>
       <r>   -14.1790     2.0997    22.5364 </r>
       <r>   -14.0845     2.6218    22.7561 </r>
       <r>   -13.9899     3.2803    23.0336 </r>
       <r>   -13.8954     1.3782    23.2535 </r>
       <r>   -13.8008     1.6955    23.3988 </r>
       <r>   -13.7062     5.0019    23.7870 </r>
       <r>   -13.6117     2.0871    24.3350 </r>
       <r>   -13.5171     2.9054    24.5676 </r>
       <r>   -13.4225     3.8117    24.8852 </r>
       <r>   -13.3280     2.8914    25.2267 </r>
       <r>   -13.2334     2.1900    25.4584 </r>
       <r>   -13.1389     2.0680    25.6727 </r>
       <r>   -13.0443     1.4638    25.8376 </r>
       <r>   -12.9497     0.9070    25.9599 </r>
       <r>   -12.8552     2.4449    26.1202 </r>
       <r>   -12.7606     3.3667    26.5551 </r>
       <r>   -12.6661     2.1503    26.7849 </r>
       <r>   -12.5715     9.4192    27.2044 </r>
       <r>   -12.4769     4.1099    27.5624 </r>
       <r>   -12.3824     1.7849    27.8975 </r>
       <r>   -12.2878    16.6900    28.0892 </r>
       <r>   -12.1933     3.5428    28.6267 </r>
       <r>   -12.0987     2.4437    28.9209 </r>
       <r>   -12.0041     2.5890    29.1589 </r>
       <r>   -11.9096     1.2682    29.4226 </r>
       <r>   -11.8150     1.4445    29.5508 </r>
       <r>   -11.7204     2.8905    29.7375 </r>
       <r>   -11.6259     6.8672    30.1170 </r>
       <r>   -11.5313     0.9623    30.3984 </r>
       <r>   -11.4368     9.2635    31.0847 </r>
       <r>   -11.3422     2.6245    31.5528 </r>
       <r>   -11.2476     5.7431    32.0157 </r>
       <r>   -11.1531     8.3121    32.6677 </r>
       <r>   -11.0585     6.1944    33.2030 </r>
       <r>   -10.9640     5.1921    33.7079 </r>
       <r>   -10.8694     4.3788    34.2116 </r>
       <r>   -10.7748     9.3095    34.7412 </r>
       <r>   -10.6803    14.0801    35.2227 </r>
       <r>   -10.5857     2.8649    35.7911 </r>
       <r>   -10.4911     2.9264    36.6537 </r>
       <r>   -10.3966     7.8315    37.3683 </r>
       <r>   -10.3020     4.4983    37.9395 </r>
       <r>   -10.2075     7.2249    38.8491 </r>
       <r>   -10.1129     4.0265    39.3544 </r>
       <r>   -10.0183     7.3986    39.9311 </r>
       <r>    -9.9238     6.1720    40.6275 </r>
       <r>    -9.8292     7.2315    41.2345 </r>
       <r>    -9.7347    11.1587    42.1529 </r>
       <r>    -9.6401     4.9346    42.6599 </r>
       <r>    -9.5455     3.8053    43.2935 </r>
       <r>    -9.4510     3.0283    43.8294 </r>
       <r>    -9.3564     4.8402    44.2015 </r>
       <r>    -9.2619     2.0324    44.5000 </r>
       <r>    -9.1673     4.7738    44.8138 </r>
       <r>    -9.0727     7.7340    45.4453 </r>
       <r>    -8.9782     3.1649    45.9302 </r>
       <r>    -8.8836     1.9193    46.4536 </r>
       <r>    -8.7890     7.6826    46.9483 </r>
       <r>    -8.6945     2.0645    47.4103 </r>
       <r>    -8.5999    14.0168    48.1196 </r>
       <r>    -8.5054     3.6010    48.5862 </r>
       <r>    -8.4108     6.9979    49.2835 </r>
       <r>    -8.3162     1.5400    49.4207 </r>
       <r>    -8.2217    10.2441    49.8048 </r>
       <r>    -8.1271     0.0000    50.0000 </r>
       <r>    -8.0326     4.6034    50.2609 </r>
       <r>    -7.9380    17.8681    50.9113 </r>
       <r>    -7.8434     3.5287    51.2900 </r>
       <r>    -7.7489     3.9628    51.5684 </r>
       <r>    -7.6543     5.5016    52.2744 </r>
       <r>    -7.5598     4.6873    52.7295 </r>
       <r>    -7.4652     3.3216    53.0650 </r>
       <r>    -7.3706     2.7376    53.4565 </r>
       <r>    -7.2761     7.6895    53.9960 </r>
       <r>    -7.1815     2.4170    54.2275 </r>
       <r>    -7.0869     1.8804    54.8222 </r>
       <r>    -6.9924     2.3475    55.5294 </r>
       <r>    -6.8978     2.0797    55.7388 </r>
       <r>    -6.8033     1.8118    55.9227 </r>
       <r>    -6.7087     2.0022    56.1009 </r>
       <r>    -6.6141     2.2436    56.3016 </r>
       <r>    -6.5196     2.5217    56.5258 </r>
       <r>    -6.4250     5.3378    57.2073 </r>
       <r>    -6.3305     7.4401    57.9766 </r>
       <r>    -6.2359     1.4200    58.0248 </r>
       <r>    -6.1413     2.3611    58.2710 </r>
       <r>    -6.0468     2.2632    58.4865 </r>
       <r>    -5.9522     2.2517    58.7000 </r>
       <r>    -5.8576     2.3191    58.9128 </r>
       <r>    -5.7631     4.2651    59.2109 </r>
       <r>    -5.6685     1.9905    59.4765 </r>
       <r>    -5.5740     3.5733    59.7111 </r>
       <r>    -5.4794     3.9333    60.0589 </r>
       <r>    -5.3848     0.5280    60.2407 </r>
       <r>    -5.2903     0.5673    60.2925 </r>
       <r>    -5.1957     0.6067    60.3480 </r>
       <r>    -5.1012     0.6460    60.4072 </r>
       <r>    -5.0066     1.1380    60.4846 </r>
       <r>    -4.9120     2.7330    60.6310 </r>
       <r>    -4.8175     1.8610    60.8701 </r>
       <r>    -4.7229     0.0000    61.0000 </r>
       <r>    -4.6284     0.0000    61.0000 </r>
       <r>    -4.5338     0.0000    61.0000 </r>
       <r>    -4.4392     0.0000    61.0000 </r>
       <r>    -4.3447     0.0000    61.0000 </r>
       <r>    -4.2501     0.0000    61.0000 </r>
       <r>    -4.1555     1.7465    61.1794 </r>
       <r>    -4.0610     2.4253    61.3766 </r>
       <r>    -3.9664     2.8777    61.6300 </r>
       <r>    -3.8719     1.8365    61.8529 </r>
       <r>    -3.7773     0.5508    61.9970 </r>
       <r>    -3.6827     0.0000    62.0000 </r>
       <r>    -3.5882     0.0000    62.0000 </r>
       <r>    -3.4936     1.9548    62.0898 </r>
       <r>    -3.3991     4.4755    62.3541 </r>
       <r>    -3.3045     3.1048    62.7536 </r>
       <r>    -3.2099     0.4654    62.9983 </r>
       <r>    -3.1154     0.0000    63.0000 </r>
       <r>    -3.0208     9.3581    63.1630 </r>
       <r>    -2.9262     3.9770    63.6591 </r>
       <r>    -2.8317     4.2889    64.1028 </r>
       <r>    -2.7371     1.6551    64.3173 </r>
       <r>    -2.6426     1.1837    64.4806 </r>
       <r>    -2.5480     0.6807    64.5644 </r>
       <r>    -2.4534     0.6351    64.6266 </r>
       <r>    -2.3589     0.5895    64.6845 </r>
       <r>    -2.2643     4.5841    64.7974 </r>
       <r>    -2.1698     4.5523    65.2017 </r>
       <r>    -2.0752     2.0721    65.4661 </r>
       <r>    -1.9806     7.1016    65.8097 </r>
       <r>    -1.8861     1.5021    66.2538 </r>
       <r>    -1.7915     5.3794    66.7164 </r>
       <r>    -1.6970     1.4775    66.9495 </r>
       <r>    -1.6024     2.7750    67.0389 </r>
       <r>    -1.5078     8.8952    67.5166 </r>
       <r>    -1.4133     0.2772    67.9540 </r>
       <r>    -1.3187     0.1982    67.9765 </r>
       <r>    -1.2241     1.3897    68.0153 </r>
       <r>    -1.1296     3.4309    68.4048 </r>
       <r>    -1.0350     1.4675    68.6017 </r>
       <r>    -0.9405     3.1298    68.7407 </r>
       <r>    -0.8459     2.1462    69.0398 </r>
       <r>    -0.7513     2.3836    69.2539 </r>
       <r>    -0.6568     2.1793    69.4846 </r>
       <r>    -0.5622     1.5497    69.6775 </r>
       <r>    -0.4677     1.6726    69.8299 </r>
       <r>    -0.3731     1.8002    69.9938 </r>
       <r>    -0.2785     2.9127    70.1911 </r>
       <r>    -0.1840     3.2649    70.5150 </r>
       <r>    -0.0894     3.6333    70.8456 </r>
       <r>     0.0051     4.5845    71.2565 </r>
       <r>     0.0997     5.5784    71.7195 </r>
       <r>     0.1943     2.1297    72.1067 </r>
       <r>     0.2888     3.4164    72.3865 </r>
       <r>     0.3834     3.2433    72.7598 </r>
       <r>     0.4780     4.1318    73.2448 </r>
       <r>     0.5725     3.6113    73.6017 </r>
       <r>     0.6671    10.1058    74.2616 </r>
       <r>     0.7616    14.9055    75.1958 </r>
       <r>     0.8562     7.3134    76.0390 </r>
       <r>     0.9508    19.1704    77.1918 </r>
       <r>     1.0453    14.7314    78.2253 </r>
       <r>     1.1399    12.7247    79.0000 </r>
       <r>     1.2344     8.6185    80.3858 </r>
       <r>     1.3290    10.1469    81.7778 </r>
       <r>     1.4236    14.5660    83.8163 </r>
       <r>     1.5181    14.1555    84.9099 </r>
       <r>     1.6127    21.3358    86.2163 </r>
       <r>     1.7073    19.0979    88.0986 </r>
       <r>     1.8018    15.3457    89.6582 </r>
       <r>     1.8964    16.3560    91.3698 </r>
       <r>     1.9909    20.1743    93.2080 </r>
       <r>     2.0855    10.2174    94.4592 </r>
       <r>     2.1801     5.5731    95.3033 </r>
       <r>     2.2746     3.2489    95.7232 </r>
       <r>     2.3692     1.3174    95.9432 </r>
       <r>     2.4637     0.1785    95.9969 </r>
       <r>     2.5583     0.0000    96.0000 </r>
       <r>     2.6529     0.0000    96.0000 </r>
       <r>     2.7474     0.0000    96.0000 </r>
       <r>     2.8420     0.0000    96.0000 </r>
       <r>     2.9365     0.0000    96.0000 </r>
       <r>     3.0311     0.0000    96.0000 </r>
       <r>     3.1257     0.0000    96.0000 </r>
       <r>     3.2202     0.0000    96.0000 </r>
       <r>     3.3148     0.0000    96.0000 </r>
       <r>     3.4094     0.0000    96.0000 </r>
       <r>     3.5039     0.0000    96.0000 </r>
       <r>     3.5985     0.0000    96.0000 </r>
       <r>     3.6930     0.0000    96.0000 </r>
       <r>     3.7876     0.0000    96.0000 </r>
      </set>
     </set>
    </array>
   </total>
  </dos>
 </calculation>
 <structure name="finalpos" >
  <crystal>
   <varray name="basis" >
    <v>       9.81620680       0.00706583       0.00000952 </v>
    <v>       4.92084228       8.51324057       0.00001727 </v>
    <v>       0.00004787       0.00007360      49.91257838 </v>
   </varray>
   <i name="volume">   4169.34541869 </i>
   <varray name="rec_basis" >
    <v>       0.10191475      -0.05890899      -0.00000001 </v>
    <v>      -0.00008459       0.11751298      -0.00000017 </v>
    <v>      -0.00000002      -0.00000003       0.02003503 </v>
   </varray>
  </crystal>
  <varray name="positions" >
   <v>       0.00034999       0.00004198       0.43999953 </v>
   <v>       0.08291450       0.08344003       0.43999948 </v>
   <v>       0.99948794       0.25016326       0.43999963 </v>
   <v>       0.08291941       0.33325794       0.44000005 </v>
   <v>       0.00036488       0.49935238       0.44000009 </v>
   <v>       0.08454618       0.58316231       0.44000000 </v>
   <v>       0.00087229       0.74941483       0.44000008 </v>
   <v>       0.08456938       0.83200680       0.44000011 </v>
   <v>       0.24970673       0.00017488       0.44000031 </v>
   <v>       0.33302780       0.08329730       0.44000042 </v>
   <v>       0.24964665       0.24987110       0.44000020 </v>
   <v>       0.33218845       0.33221077       0.43999849 </v>
   <v>       0.25460856       0.49807955       0.43999830 </v>
   <v>       0.33325184       0.58311730       0.43999715 </v>
   <v>       0.25471243       0.74690889       0.43999984 </v>
   <v>       0.33220950       0.83523811       0.44000016 </v>
   <v>       0.49931885       0.00022678       0.43999954 </v>
   <v>       0.58343715       0.08352134       0.44000073 </v>
   <v>       0.49828564       0.25285437       0.44000247 </v>
   <v>       0.58345061       0.33001523       0.44000167 </v>
   <v>       0.58373395       0.58630501       0.44000952 </v>
   <v>       0.49839510       0.74858102       0.43999811 </v>
   <v>       0.58344669       0.83281739       0.43999873 </v>
   <v>       0.74983125       0.00018261       0.43999993 </v>
   <v>       0.83227979       0.08400217       0.43999844 </v>
   <v>       0.74693528       0.25399702       0.43999665 </v>
   <v>       0.83415067       0.33275926       0.44000077 </v>
   <v>       0.74705934       0.49888730       0.43999957 </v>
   <v>       0.83234264       0.58346304       0.43999913 </v>
   <v>       0.74986687       0.74972153       0.44000035 </v>
   <v>       0.83356637       0.83312353       0.44000059 </v>
  </varray>
  <varray name="velocities" >
   <v>       0.00000000       0.00000000       0.00000000 </v>
   <v>       0.00000000       0.00000000       0.00000000 </v>
   <v>       0.00000000       0.00000000       0.00000000 </v>
   <v>       0.00000000       0.00000000       0.00000000 </v>
   <v>       0.00000000       0.00000000       0.00000000 </v>
   <v>       0.00000000       0.00000000       0.00000000 </v>
   <v>       0.00000000       0.00000000       0.00000000 </v>
   <v>       0.00000000       0.00000000       0.00000000 </v>
   <v>       0.00000000       0.00000000       0.00000000 </v>
   <v>       0.00000000       0.00000000       0.00000000 </v>
   <v>       0.00000000       0.00000000       0.00000000 </v>
   <v>       0.00000000       0.00000000       0.00000000 </v>
   <v>       0.00000000       0.00000000       0.00000000 </v>
   <v>       0.00000000       0.00000000       0.00000000 </v>
   <v>       0.00000000       0.00000000       0.00000000 </v>
   <v>       0.00000000       0.00000000       0.00000000 </v>
   <v>       0.00000000       0.00000000       0.00000000 </v>
   <v>       0.00000000       0.00000000       0.00000000 </v>
   <v>       0.00000000       0.00000000       0.00000000 </v>
   <v>       0.00000000       0.00000000       0.00000000 </v>
   <v>       0.00000000       0.00000000       0.00000000 </v>
   <v>       0.00000000       0.00000000       0.00000000 </v>
   <v>       0.00000000       0.00000000       0.00000000 </v>
   <v>       0.00000000       0.00000000       0.00000000 </v>
   <v>       0.00000000       0.00000000       0.00000000 </v>
   <v>       0.00000000       0.00000000       0.00000000 </v>
   <v>       0.00000000       0.00000000       0.00000000 </v>
   <v>       0.00000000       0.00000000       0.00000000 </v>
   <v>       0.00000000       0.00000000       0.00000000 </v>
   <v>       0.00000000       0.00000000       0.00000000 </v>
   <v>       0.00000000       0.00000000       0.00000000 </v>
  </varray>
 </structure>
</modeling>
