unknown system                          
           1
     9.816207    0.007066    0.000010
     4.920842    8.513241    0.000017
     0.000048    0.000074   49.912578
   C 
  31
Direct configuration=     1
   0.00034999  0.00004198  0.43999953
   0.08291450  0.08344003  0.43999948
   0.99948794  0.25016326  0.43999963
   0.08291941  0.33325794  0.44000005
   0.00036488  0.49935238  0.44000009
   0.08454618  0.58316231  0.44000000
   0.00087229  0.74941483  0.44000008
   0.08456938  0.83200680  0.44000011
   0.24970673  0.00017488  0.44000031
   0.33302780  0.08329730  0.44000042
   0.24964665  0.24987110  0.44000020
   0.33218845  0.33221077  0.43999849
   0.25460856  0.49807955  0.43999830
   0.33325184  0.58311730  0.43999715
   0.25471243  0.74690889  0.43999984
   0.33220950  0.83523811  0.44000016
   0.49931885  0.00022678  0.43999954
   0.58343715  0.08352134  0.44000073
   0.49828564  0.25285437  0.44000247
   0.58345061  0.33001523  0.44000167
   0.58373395  0.58630501  0.44000952
   0.49839510  0.74858102  0.43999811
   0.58344669  0.83281739  0.43999873
   0.74983125  0.00018261  0.43999993
   0.83227979  0.08400217  0.43999844
   0.74693528  0.25399702  0.43999665
   0.83415067  0.33275926  0.44000077
   0.74705934  0.49888730  0.43999957
   0.83234264  0.58346304  0.43999913
   0.74986687  0.74972153  0.44000035
   0.83356637  0.83312353  0.44000059
