       N       E                     dE             d eps       ncg     rms          rms(c)
DAV:   1     0.300904624655E+04    0.30090E+04   -0.10148E+05  4344   0.163E+03
DAV:   2     0.143689240925E+03   -0.28654E+04   -0.26980E+04  6408   0.292E+02
DAV:   3    -0.556921371660E+03   -0.70061E+03   -0.69690E+03  5028   0.150E+02
DAV:   4    -0.591836672650E+03   -0.34915E+02   -0.34475E+02  4968   0.440E+01
DAV:   5    -0.592771763549E+03   -0.93509E+00   -0.92757E+00  5232   0.678E+00    0.342E+01
DAV:   6    -0.566703481209E+03    0.26068E+02   -0.27681E+01  4524   0.119E+01    0.200E+01
DAV:   7    -0.557847424718E+03    0.88561E+01   -0.31751E+01  4512   0.123E+01    0.540E+00
DAV:   8    -0.557815499456E+03    0.31925E-01   -0.10617E+00  4812   0.266E+00    0.246E+00
DAV:   9    -0.557738328106E+03    0.77171E-01   -0.27140E-01  4596   0.130E+00    0.679E-01
DAV:  10    -0.557716229467E+03    0.22099E-01   -0.57182E-02  4644   0.599E-01    0.290E-01
DAV:  11    -0.557707019721E+03    0.92097E-02   -0.11370E-02  4680   0.230E-01    0.212E-01
DAV:  12    -0.557697846581E+03    0.91731E-02   -0.10617E-02  4512   0.186E-01    0.134E-01
DAV:  13    -0.557697596426E+03    0.25016E-03   -0.87098E-03  4488   0.161E-01    0.787E-02
DAV:  14    -0.557702654275E+03   -0.50578E-02   -0.26981E-03  4284   0.110E-01    0.465E-02
DAV:  15    -0.557707659183E+03   -0.50049E-02   -0.79066E-04  4416   0.558E-02    0.250E-02
DAV:  16    -0.557710805765E+03   -0.31466E-02   -0.12701E-04  4500   0.244E-02    0.147E-02
DAV:  17    -0.557712836171E+03   -0.20304E-02   -0.63994E-05  4536   0.141E-02    0.950E-03
DAV:  18    -0.557713854063E+03   -0.10179E-02   -0.24684E-05  4632   0.849E-03    0.622E-03
DAV:  19    -0.557714717668E+03   -0.86361E-03   -0.28135E-05  4464   0.773E-03    0.357E-03
DAV:  20    -0.557715197185E+03   -0.47952E-03   -0.17277E-05  4536   0.568E-03    0.209E-03
DAV:  21    -0.557715416061E+03   -0.21888E-03   -0.59529E-06  3876   0.340E-03    0.118E-03
DAV:  22    -0.557715514659E+03   -0.98598E-04   -0.18734E-06  3768   0.190E-03    0.717E-04
DAV:  23    -0.557715567654E+03   -0.52994E-04   -0.54665E-07  3648   0.106E-03    0.401E-04
DAV:  24    -0.557715586114E+03   -0.18460E-04   -0.54308E-08  2856   0.430E-04    0.230E-04
DAV:  25    -0.557715596240E+03   -0.10126E-04   -0.17625E-08  2736   0.265E-04    0.154E-04
DAV:  26    -0.557715600296E+03   -0.40567E-05   -0.50883E-09  2724   0.168E-04    0.750E-05
DAV:  27    -0.557715602228E+03   -0.19322E-05   -0.67383E-10  2556   0.120E-04    0.407E-05
DAV:  28    -0.557715602888E+03   -0.65980E-06    0.20681E-09  2676   0.726E-05    0.236E-05
DAV:  29    -0.557715603289E+03   -0.40063E-06    0.27351E-09  2532   0.541E-05    0.114E-05
DAV:  30    -0.557715603376E+03   -0.87177E-07    0.34056E-09  2820   0.315E-05
   1 F= -.56492387E+03 E0= -.56492387E+03  d E =-.564924E+03
       N       E                     dE             d eps       ncg     rms          rms(c)
DAV:   1    -0.557400520625E+03    0.31508E+00   -0.18771E+01  4176   0.134E+01    0.306E+00
DAV:   2    -0.557289504808E+03    0.11102E+00   -0.51717E-01  4572   0.206E+00    0.193E+00
DAV:   3    -0.557226250823E+03    0.63254E-01   -0.17746E-01  4524   0.116E+00    0.553E-01
DAV:   4    -0.557220605519E+03    0.56453E-02   -0.45765E-02  4656   0.561E-01    0.188E-01
DAV:   5    -0.557220265318E+03    0.34020E-03   -0.48837E-03  4428   0.196E-01    0.127E-01
DAV:   6    -0.557220075428E+03    0.18989E-03   -0.75394E-04  4800   0.751E-02    0.610E-02
DAV:   7    -0.557220063044E+03    0.12384E-04   -0.20706E-04  4572   0.381E-02    0.178E-02
DAV:   8    -0.557220142466E+03   -0.79422E-04   -0.47062E-05  4368   0.163E-02    0.101E-02
DAV:   9    -0.557220234052E+03   -0.91586E-04   -0.10979E-05  4632   0.846E-03    0.407E-03
DAV:  10    -0.557220319643E+03   -0.85591E-04   -0.54430E-06  4416   0.418E-03    0.305E-03
DAV:  11    -0.557220383056E+03   -0.63413E-04   -0.17641E-06  3840   0.210E-03    0.177E-03
DAV:  12    -0.557220457393E+03   -0.74337E-04   -0.44047E-06  4392   0.285E-03    0.121E-03
DAV:  13    -0.557220481858E+03   -0.24465E-04   -0.84314E-07  3804   0.136E-03    0.894E-04
DAV:  14    -0.557220507596E+03   -0.25738E-04   -0.47885E-07  3600   0.984E-04    0.438E-04
DAV:  15    -0.557220514211E+03   -0.66145E-05   -0.37743E-08  3060   0.389E-04    0.286E-04
DAV:  16    -0.557220524267E+03   -0.10056E-04   -0.50589E-08  2868   0.364E-04    0.173E-04
DAV:  17    -0.557220529055E+03   -0.47884E-05   -0.49884E-08  2844   0.294E-04    0.110E-04
DAV:  18    -0.557220531162E+03   -0.21071E-05   -0.12409E-08  2940   0.197E-04    0.421E-05
DAV:  19    -0.557220531871E+03   -0.70902E-06   -0.14783E-09  2772   0.120E-04    0.317E-05
DAV:  20    -0.557220532530E+03   -0.65907E-06    0.35239E-10  2604   0.914E-05    0.176E-05
DAV:  21    -0.557220532782E+03   -0.25166E-06    0.25076E-09  2640   0.605E-05    0.141E-05
DAV:  22    -0.557220532929E+03   -0.14725E-06    0.34762E-09  2520   0.456E-05    0.538E-06
DAV:  23    -0.557220532974E+03   -0.44733E-07    0.39943E-09  2604   0.261E-05
   2 F= -.56460974E+03 E0= -.56460974E+03  d E =0.314127E+00
       N       E                     dE             d eps       ncg     rms          rms(c)
DAV:   1    -0.557815110850E+03   -0.59458E+00   -0.16068E+01  4056   0.119E+01    0.209E+00
DAV:   2    -0.557774474375E+03    0.40636E-01   -0.41602E-01  4368   0.178E+00    0.143E+00
DAV:   3    -0.557733372254E+03    0.41102E-01   -0.79551E-02  4452   0.826E-01    0.286E-01
DAV:   4    -0.557732642599E+03    0.72965E-03   -0.15415E-02  4788   0.339E-01    0.138E-01
DAV:   5    -0.557732517170E+03    0.12543E-03   -0.19406E-03  4512   0.117E-01    0.769E-02
DAV:   6    -0.557732627894E+03   -0.11072E-03   -0.37210E-04  4440   0.506E-02    0.291E-02
DAV:   7    -0.557732797499E+03   -0.16961E-03   -0.83955E-05  4608   0.237E-02    0.125E-02
DAV:   8    -0.557732966272E+03   -0.16877E-03   -0.25158E-05  4476   0.115E-02    0.701E-03
DAV:   9    -0.557733138757E+03   -0.17248E-03   -0.16262E-05  4608   0.683E-03    0.421E-03
DAV:  10    -0.557733305993E+03   -0.16724E-03   -0.20861E-05  4464   0.695E-03    0.258E-03
DAV:  11    -0.557733423335E+03   -0.11734E-03   -0.15189E-05  4392   0.547E-03    0.138E-03
DAV:  12    -0.557733460282E+03   -0.36947E-04   -0.33323E-06  3852   0.267E-03    0.919E-04
DAV:  13    -0.557733476456E+03   -0.16174E-04   -0.79424E-07  3792   0.138E-03    0.554E-04
DAV:  14    -0.557733488121E+03   -0.11665E-04   -0.46858E-07  3684   0.998E-04    0.328E-04
DAV:  15    -0.557733493032E+03   -0.49106E-05   -0.83185E-08  3180   0.502E-04    0.187E-04
DAV:  16    -0.557733495862E+03   -0.28304E-05   -0.10577E-07  3288   0.412E-04    0.111E-04
DAV:  17    -0.557733497110E+03   -0.12476E-05   -0.85845E-09  2868   0.190E-04    0.580E-05
DAV:  18    -0.557733497716E+03   -0.60615E-06   -0.26592E-09  2580   0.123E-04    0.404E-05
DAV:  19    -0.557733498136E+03   -0.41958E-06    0.24764E-10  2568   0.921E-05    0.210E-05
DAV:  20    -0.557733498326E+03   -0.19080E-06    0.22016E-09  2580   0.643E-05    0.131E-05
DAV:  21    -0.557733498482E+03   -0.15517E-06    0.28782E-09  2532   0.473E-05    0.811E-06
DAV:  22    -0.557733498534E+03   -0.52238E-07    0.35149E-09  2640   0.306E-05
   3 F= -.56499742E+03 E0= -.56499742E+03  d E =-.387683E+00
       N       E                     dE             d eps       ncg     rms          rms(c)
DAV:   1    -0.557478038417E+03    0.25546E+00   -0.29429E+01  4056   0.156E+01    0.122E+00
DAV:   2    -0.557516357539E+03   -0.38319E-01   -0.69036E-01  4824   0.224E+00    0.842E-01
DAV:   3    -0.557503030709E+03    0.13327E-01   -0.41941E-02  4896   0.582E-01    0.427E-01
DAV:   4    -0.557499918973E+03    0.31117E-02   -0.14388E-02  4332   0.345E-01    0.117E-01
DAV:   5    -0.557499878644E+03    0.40329E-04   -0.29327E-03  4584   0.142E-01    0.579E-02
DAV:   6    -0.557499885044E+03   -0.64004E-05   -0.22502E-04  4416   0.400E-02    0.251E-02
DAV:   7    -0.557499890710E+03   -0.56655E-05   -0.40169E-05  4596   0.181E-02    0.858E-03
DAV:   8    -0.557499900762E+03   -0.10053E-04   -0.65835E-06  4680   0.685E-03    0.311E-03
DAV:   9    -0.557499910400E+03   -0.96376E-05   -0.13927E-06  4464   0.292E-03    0.125E-03
DAV:  10    -0.557499921107E+03   -0.10707E-04   -0.46641E-07  3744   0.124E-03    0.636E-04
DAV:  11    -0.557499928588E+03   -0.74808E-05   -0.23056E-07  3660   0.803E-04    0.439E-04
DAV:  12    -0.557499936241E+03   -0.76534E-05   -0.30815E-07  3552   0.793E-04    0.305E-04
DAV:  13    -0.557499942200E+03   -0.59585E-05   -0.30978E-07  3588   0.750E-04    0.211E-04
DAV:  14    -0.557499944662E+03   -0.24624E-05   -0.74517E-08  3024   0.408E-04    0.987E-05
DAV:  15    -0.557499945987E+03   -0.13244E-05   -0.47837E-08  2796   0.299E-04    0.579E-05
DAV:  16    -0.557499946673E+03   -0.68633E-06   -0.17313E-08  2784   0.208E-04    0.363E-05
DAV:  17    -0.557499947037E+03   -0.36394E-06   -0.98338E-09  2676   0.166E-04    0.196E-05
DAV:  18    -0.557499947165E+03   -0.12841E-06   -0.13269E-09  2592   0.103E-04    0.105E-05
DAV:  19    -0.557499947224E+03   -0.58910E-07    0.20523E-09  2508   0.647E-05
   4 F= -.56475942E+03 E0= -.56475942E+03  d E =0.238004E+00
       N       E                     dE             d eps       ncg     rms          rms(c)
DAV:   1    -0.557750955021E+03   -0.25101E+00   -0.15920E+01  4056   0.115E+01    0.112E+00
DAV:   2    -0.557766750832E+03   -0.15796E-01   -0.40682E-01  4740   0.171E+00    0.752E-01
DAV:   3    -0.557753645952E+03    0.13105E-01   -0.32952E-02  4716   0.538E-01    0.257E-01
DAV:   4    -0.557752876954E+03    0.76900E-03   -0.68844E-03  4380   0.218E-01    0.869E-02
DAV:   5    -0.557752886489E+03   -0.95349E-05   -0.74694E-04  4716   0.738E-02    0.484E-02
DAV:   6    -0.557752876421E+03    0.10067E-04   -0.10226E-04  4596   0.270E-02    0.210E-02
DAV:   7    -0.557752875692E+03    0.72928E-06   -0.17411E-05  4512   0.116E-02    0.466E-03
DAV:   8    -0.557752878609E+03   -0.29171E-05   -0.25389E-06  4812   0.393E-03    0.202E-03
DAV:   9    -0.557752881673E+03   -0.30636E-05   -0.26262E-07  2988   0.145E-03    0.105E-03
DAV:  10    -0.557752885836E+03   -0.41632E-05   -0.20161E-07  3432   0.908E-04    0.444E-04
DAV:  11    -0.557752889243E+03   -0.34066E-05   -0.72811E-08  2736   0.532E-04    0.302E-04
DAV:  12    -0.557752893264E+03   -0.40216E-05   -0.13379E-07  3240   0.520E-04    0.245E-04
DAV:  13    -0.557752895870E+03   -0.26062E-05   -0.56895E-08  2808   0.359E-04    0.131E-04
DAV:  14    -0.557752897468E+03   -0.15977E-05   -0.29630E-08  2688   0.257E-04    0.738E-05
DAV:  15    -0.557752898347E+03   -0.87887E-06   -0.63071E-09  2700   0.165E-04    0.440E-05
DAV:  16    -0.557752899096E+03   -0.74869E-06   -0.48564E-09  2784   0.127E-04    0.290E-05
DAV:  17    -0.557752899546E+03   -0.45013E-06   -0.10162E-09  2652   0.977E-05    0.173E-05
DAV:  18    -0.557752899767E+03   -0.22143E-06    0.13285E-09  2544   0.735E-05    0.803E-06
DAV:  19    -0.557752899863E+03   -0.96232E-07    0.28551E-09  2556   0.495E-05
   5 F= -.56504088E+03 E0= -.56504088E+03  d E =-.281464E+00
       N       E                     dE             d eps       ncg     rms          rms(c)
DAV:   1    -0.557759081076E+03   -0.61813E-02   -0.91067E-01  4116   0.275E+00    0.330E-01
DAV:   2    -0.557758441608E+03    0.63947E-03   -0.28318E-02  4344   0.462E-01    0.216E-01
DAV:   3    -0.557757460331E+03    0.98128E-03   -0.29618E-03  4416   0.149E-01    0.116E-01
DAV:   4    -0.557757123678E+03    0.33665E-03   -0.12848E-03  4380   0.102E-01    0.341E-02
DAV:   5    -0.557757123290E+03    0.38811E-06   -0.23447E-04  4464   0.413E-02    0.221E-02
DAV:   6    -0.557757129532E+03   -0.62423E-05   -0.22477E-05  4644   0.116E-02    0.108E-02
DAV:   7    -0.557757141808E+03   -0.12275E-04   -0.46992E-06  4860   0.538E-03    0.449E-03
DAV:   8    -0.557757152898E+03   -0.11090E-04   -0.10517E-06  4440   0.254E-03    0.183E-03
DAV:   9    -0.557757161857E+03   -0.89597E-05   -0.35809E-07  3648   0.124E-03    0.966E-04
DAV:  10    -0.557757179432E+03   -0.17574E-04   -0.12093E-06  3732   0.164E-03    0.676E-04
DAV:  11    -0.557757186875E+03   -0.74435E-05   -0.27799E-07  3672   0.810E-04    0.453E-04
DAV:  12    -0.557757194599E+03   -0.77240E-05   -0.46661E-07  3672   0.885E-04    0.200E-04
DAV:  13    -0.557757196706E+03   -0.21068E-05   -0.51747E-08  3000   0.368E-04    0.123E-04
DAV:  14    -0.557757197909E+03   -0.12029E-05   -0.33947E-08  2808   0.259E-04    0.826E-05
DAV:  15    -0.557757198838E+03   -0.92866E-06   -0.20166E-08  2856   0.215E-04    0.504E-05
DAV:  16    -0.557757199377E+03   -0.53915E-06   -0.15723E-08  2796   0.184E-04    0.335E-05
DAV:  17    -0.557757199594E+03   -0.21765E-06   -0.40222E-09  2616   0.116E-04    0.140E-05
DAV:  18    -0.557757199676E+03   -0.81276E-07    0.13248E-09  2628   0.749E-05
   6 F= -.56504527E+03 E0= -.56504527E+03  d E =-.438635E-02
       N       E                     dE             d eps       ncg     rms          rms(c)
DAV:   1    -0.557766418353E+03   -0.92188E-02   -0.84974E-01  4128   0.266E+00    0.241E-01
DAV:   2    -0.557767042893E+03   -0.62454E-03   -0.21986E-02  4464   0.404E-01    0.164E-01
DAV:   3    -0.557766569307E+03    0.47359E-03   -0.17971E-03  4728   0.116E-01    0.928E-02
DAV:   4    -0.557766392770E+03    0.17654E-03   -0.67456E-04  4332   0.737E-02    0.296E-02
DAV:   5    -0.557766382900E+03    0.98703E-05   -0.13342E-04  4476   0.301E-02    0.151E-02
DAV:   6    -0.557766383129E+03   -0.22901E-06   -0.12823E-05  4668   0.947E-03    0.539E-03
DAV:   7    -0.557766390590E+03   -0.74605E-05   -0.22497E-06  4392   0.426E-03    0.249E-03
DAV:   8    -0.557766397358E+03   -0.67680E-05   -0.63011E-07  4380   0.179E-03    0.106E-03
DAV:   9    -0.557766403454E+03   -0.60967E-05   -0.17455E-07  3576   0.867E-04    0.638E-04
DAV:  10    -0.557766413333E+03   -0.98788E-05   -0.52369E-07  3732   0.102E-03    0.414E-04
DAV:  11    -0.557766417780E+03   -0.44473E-05   -0.12123E-07  3444   0.528E-04    0.294E-04
DAV:  12    -0.557766423693E+03   -0.59126E-05   -0.34374E-07  3624   0.734E-04    0.140E-04
DAV:  13    -0.557766425333E+03   -0.16403E-05   -0.42931E-08  3000   0.324E-04    0.964E-05
DAV:  14    -0.557766426456E+03   -0.11230E-05   -0.33404E-08  2820   0.253E-04    0.570E-05
DAV:  15    -0.557766426943E+03   -0.48681E-06   -0.87601E-09  2808   0.163E-04    0.371E-05
DAV:  16    -0.557766427320E+03   -0.37688E-06   -0.87464E-09  2784   0.152E-04    0.198E-05
DAV:  17    -0.557766427463E+03   -0.14289E-06   -0.18838E-09  2592   0.963E-05    0.121E-05
DAV:  18    -0.557766427527E+03   -0.64090E-07    0.21488E-09  2580   0.623E-05
   7 F= -.56504805E+03 E0= -.56504805E+03  d E =-.278295E-02
       N       E                     dE             d eps       ncg     rms          rms(c)
DAV:   1    -0.557760397461E+03    0.60300E-02   -0.36702E-01  4140   0.175E+00    0.201E-01
DAV:   2    -0.557760379416E+03    0.18045E-04   -0.95088E-03  4392   0.266E-01    0.131E-01
DAV:   3    -0.557760023032E+03    0.35638E-03   -0.12660E-03  4704   0.967E-02    0.464E-02
DAV:   4    -0.557759998652E+03    0.24380E-04   -0.19328E-04  4572   0.365E-02    0.190E-02
DAV:   5    -0.557759998858E+03   -0.20651E-06   -0.33334E-05  4740   0.145E-02    0.922E-03
DAV:   6    -0.557760000965E+03   -0.21074E-05   -0.45238E-06  4452   0.572E-03    0.445E-03
DAV:   7    -0.557760004968E+03   -0.40028E-05   -0.99073E-07  4344   0.282E-03    0.133E-03
DAV:   8    -0.557760008480E+03   -0.35117E-05   -0.24809E-07  3516   0.119E-03    0.483E-04
DAV:   9    -0.557760011265E+03   -0.27851E-05   -0.69063E-08  2832   0.630E-04    0.333E-04
DAV:  10    -0.557760015487E+03   -0.42222E-05   -0.19260E-07  3468   0.629E-04    0.186E-04
DAV:  11    -0.557760017841E+03   -0.23536E-05   -0.64101E-08  2928   0.422E-04    0.123E-04
DAV:  12    -0.557760019495E+03   -0.16547E-05   -0.71760E-08  2904   0.351E-04    0.936E-05
DAV:  13    -0.557760020392E+03   -0.89681E-06   -0.24867E-08  2856   0.253E-04    0.508E-05
DAV:  14    -0.557760020838E+03   -0.44587E-06   -0.12418E-08  2784   0.188E-04    0.281E-05
DAV:  15    -0.557760021030E+03   -0.19148E-06   -0.25367E-09  2544   0.122E-04    0.199E-05
DAV:  16    -0.557760021203E+03   -0.17301E-06   -0.22163E-09  2748   0.108E-04    0.109E-05
DAV:  17    -0.557760021263E+03   -0.60016E-07    0.17486E-09  2580   0.674E-05
   8 F= -.56505015E+03 E0= -.56505015E+03  d E =-.209622E-02
       N       E                     dE             d eps       ncg     rms          rms(c)
DAV:   1    -0.557751653957E+03    0.83672E-02   -0.51820E-01  4116   0.206E+00    0.209E-01
DAV:   2    -0.557751726414E+03   -0.72457E-04   -0.12951E-02  4356   0.306E-01    0.136E-01
DAV:   3    -0.557751255750E+03    0.47066E-03   -0.15528E-03  4716   0.105E-01    0.548E-02
DAV:   4    -0.557751202071E+03    0.53680E-04   -0.24018E-04  4572   0.413E-02    0.250E-02
DAV:   5    -0.557751197356E+03    0.47144E-05   -0.53633E-05  4440   0.186E-02    0.135E-02
DAV:   6    -0.557751201770E+03   -0.44134E-05   -0.83159E-06  4308   0.727E-03    0.533E-03
DAV:   7    -0.557751213622E+03   -0.11853E-04   -0.18403E-06  4428   0.331E-03    0.200E-03
DAV:   8    -0.557751223624E+03   -0.10002E-04   -0.53606E-07  3948   0.149E-03    0.864E-04
DAV:   9    -0.557751230948E+03   -0.73240E-05   -0.19626E-07  3516   0.851E-04    0.605E-04
DAV:  10    -0.557751245356E+03   -0.14408E-04   -0.98796E-07  3696   0.131E-03    0.349E-04
DAV:  11    -0.557751251075E+03   -0.57189E-05   -0.25250E-07  3624   0.709E-04    0.221E-04
DAV:  12    -0.557751254732E+03   -0.36577E-05   -0.15035E-07  3420   0.519E-04    0.123E-04
DAV:  13    -0.557751256111E+03   -0.13787E-05   -0.27326E-08  2952   0.273E-04    0.814E-05
DAV:  14    -0.557751257215E+03   -0.11043E-05   -0.26590E-08  2784   0.232E-04    0.476E-05
DAV:  15    -0.557751257766E+03   -0.55071E-06   -0.13762E-08  2772   0.165E-04    0.320E-05
DAV:  16    -0.557751257988E+03   -0.22169E-06   -0.17391E-09  2664   0.120E-04    0.152E-05
DAV:  17    -0.557751258083E+03   -0.95362E-07    0.12139E-09  2544   0.689E-05
   9 F= -.56504883E+03 E0= -.56504883E+03  d E =0.131950E-02
       N       E                     dE             d eps       ncg     rms          rms(c)
DAV:   1    -0.557747456675E+03    0.38013E-02   -0.18052E+00  4056   0.381E+00    0.377E-01
DAV:   2    -0.557747031630E+03    0.42504E-03   -0.42073E-02  4320   0.549E-01    0.248E-01
DAV:   3    -0.557744845397E+03    0.21862E-02   -0.43824E-03  4644   0.179E-01    0.966E-02
DAV:   4    -0.557744556652E+03    0.28874E-03   -0.88939E-04  4668   0.738E-02    0.378E-02
DAV:   5    -0.557744567611E+03   -0.10959E-04   -0.11585E-04  4620   0.292E-02    0.215E-02
DAV:   6    -0.557744606427E+03   -0.38816E-04   -0.26332E-05  4368   0.127E-02    0.671E-03
DAV:   7    -0.557744655940E+03   -0.49513E-04   -0.59173E-06  4500   0.556E-03    0.350E-03
DAV:   8    -0.557744707100E+03   -0.51161E-04   -0.33891E-06  4632   0.332E-03    0.225E-03
DAV:   9    -0.557744750485E+03   -0.43385E-04   -0.23077E-06  3840   0.233E-03    0.145E-03
DAV:  10    -0.557744808660E+03   -0.58175E-04   -0.65428E-06  4356   0.347E-03    0.834E-04
DAV:  11    -0.557744831438E+03   -0.22778E-04   -0.16330E-06  3816   0.177E-03    0.407E-04
DAV:  12    -0.557744841739E+03   -0.10301E-04   -0.62551E-07  3684   0.106E-03    0.256E-04
DAV:  13    -0.557744845786E+03   -0.40474E-05   -0.93012E-08  3228   0.512E-04    0.180E-04
DAV:  14    -0.557744848176E+03   -0.23894E-05   -0.65282E-08  2856   0.363E-04    0.111E-04
DAV:  15    -0.557744849499E+03   -0.13229E-05   -0.31861E-08  2820   0.254E-04    0.561E-05
DAV:  16    -0.557744849970E+03   -0.47165E-06   -0.84363E-09  2796   0.163E-04    0.369E-05
DAV:  17    -0.557744850314E+03   -0.34336E-06   -0.21643E-10  2580   0.102E-04    0.204E-05
DAV:  18    -0.557744850470E+03   -0.15672E-06    0.22311E-09  2556   0.618E-05    0.123E-05
DAV:  19    -0.557744850591E+03   -0.12052E-06    0.29876E-09  2484   0.456E-05    0.693E-06
DAV:  20    -0.557744850644E+03   -0.52674E-07    0.36383E-09  2568   0.280E-05
  10 F= -.56504314E+03 E0= -.56504314E+03  d E =0.569073E-02
       N       E                     dE             d eps       ncg     rms          rms(c)
DAV:   1    -0.557766413631E+03   -0.21563E-01   -0.19996E+00  4056   0.403E+00    0.423E-01
DAV:   2    -0.557766903746E+03   -0.49011E-03   -0.51690E-02  4296   0.609E-01    0.286E-01
DAV:   3    -0.557764598616E+03    0.23051E-02   -0.53984E-03  4332   0.210E-01    0.856E-02
DAV:   4    -0.557764479251E+03    0.11937E-03   -0.96985E-04  4656   0.791E-02    0.330E-02
DAV:   5    -0.557764473271E+03    0.59804E-05   -0.78452E-05  4668   0.238E-02    0.139E-02
DAV:   6    -0.557764479165E+03   -0.58943E-05   -0.79000E-06  4524   0.753E-03    0.627E-03
DAV:   7    -0.557764487785E+03   -0.86200E-05   -0.26942E-06  4392   0.428E-03    0.269E-03
DAV:   8    -0.557764499419E+03   -0.11634E-04   -0.11048E-06  4332   0.229E-03    0.147E-03
DAV:   9    -0.557764515392E+03   -0.15973E-04   -0.67705E-07  3624   0.141E-03    0.936E-04
DAV:  10    -0.557764533810E+03   -0.18419E-04   -0.96712E-07  3600   0.137E-03    0.537E-04
DAV:  11    -0.557764547211E+03   -0.13400E-04   -0.55733E-07  3624   0.980E-04    0.309E-04
DAV:  12    -0.557764553929E+03   -0.67180E-05   -0.11618E-07  3264   0.470E-04    0.183E-04
DAV:  13    -0.557764557040E+03   -0.31111E-05   -0.19541E-08  2904   0.250E-04    0.126E-04
DAV:  14    -0.557764560461E+03   -0.34215E-05   -0.23624E-08  2844   0.219E-04    0.726E-05
DAV:  15    -0.557764562135E+03   -0.16736E-05   -0.13208E-08  2916   0.167E-04    0.424E-05
DAV:  16    -0.557764562957E+03   -0.82201E-06   -0.24954E-09  2736   0.121E-04    0.222E-05
DAV:  17    -0.557764563374E+03   -0.41692E-06    0.26927E-10  2688   0.852E-05    0.159E-05
DAV:  18    -0.557764563589E+03   -0.21471E-06    0.27129E-09  2604   0.571E-05    0.725E-06
DAV:  19    -0.557764563695E+03   -0.10618E-06    0.32747E-09  2556   0.393E-05    0.511E-06
DAV:  20    -0.557764563760E+03   -0.64701E-07    0.36500E-09  2472   0.278E-05
  11 F= -.56505159E+03 E0= -.56505159E+03  d E =-.845553E-02
       N       E                     dE             d eps       ncg     rms          rms(c)
DAV:   1    -0.557755503440E+03    0.90603E-02   -0.65914E-01  4056   0.230E+00    0.286E-01
DAV:   2    -0.557754719154E+03    0.78429E-03   -0.14692E-02  4344   0.327E-01    0.179E-01
DAV:   3    -0.557753827147E+03    0.89201E-03   -0.21997E-03  4500   0.121E-01    0.522E-02
DAV:   4    -0.557753751153E+03    0.75994E-04   -0.38059E-04  4644   0.515E-02    0.239E-02
DAV:   5    -0.557753757724E+03   -0.65714E-05   -0.52670E-05  4692   0.195E-02    0.140E-02
DAV:   6    -0.557753777913E+03   -0.20189E-04   -0.10079E-05  4356   0.761E-03    0.448E-03
DAV:   7    -0.557753800601E+03   -0.22687E-04   -0.16189E-06  4488   0.300E-03    0.201E-03
DAV:   8    -0.557753821596E+03   -0.20995E-04   -0.11228E-06  3888   0.191E-03    0.116E-03
DAV:   9    -0.557753839246E+03   -0.17650E-04   -0.68470E-07  3744   0.131E-03    0.798E-04
DAV:  10    -0.557753865712E+03   -0.26466E-04   -0.23535E-06  3744   0.200E-03    0.413E-04
DAV:  11    -0.557753875394E+03   -0.96820E-05   -0.61158E-07  3756   0.105E-03    0.233E-04
DAV:  12    -0.557753879324E+03   -0.39297E-05   -0.13667E-07  3444   0.531E-04    0.148E-04
DAV:  13    -0.557753881004E+03   -0.16798E-05   -0.26989E-08  2856   0.277E-04    0.102E-04
DAV:  14    -0.557753882558E+03   -0.15546E-05   -0.43251E-08  2760   0.277E-04    0.585E-05
DAV:  15    -0.557753883193E+03   -0.63493E-06   -0.17213E-08  2820   0.182E-04    0.294E-05
DAV:  16    -0.557753883417E+03   -0.22352E-06   -0.93396E-10  2640   0.111E-04    0.187E-05
DAV:  17    -0.557753883545E+03   -0.12829E-06    0.21469E-09  2568   0.650E-05    0.994E-06
DAV:  18    -0.557753883625E+03   -0.79734E-07    0.30963E-09  2544   0.423E-05
  12 F= -.56505379E+03 E0= -.56505379E+03  d E =-.219894E-02
       N       E                     dE             d eps       ncg     rms          rms(c)
DAV:   1    -0.557751998215E+03    0.18853E-02   -0.47550E-01  4140   0.197E+00    0.179E-01
DAV:   2    -0.557752320795E+03   -0.32258E-03   -0.12187E-02  4536   0.302E-01    0.119E-01
DAV:   3    -0.557752030922E+03    0.28987E-03   -0.10616E-03  4644   0.903E-02    0.609E-02
DAV:   4    -0.557751955278E+03    0.75644E-04   -0.36063E-04  4284   0.533E-02    0.214E-02
DAV:   5    -0.557751950626E+03    0.46523E-05   -0.67189E-05  4464   0.214E-02    0.116E-02
DAV:   6    -0.557751949766E+03    0.85933E-06   -0.69890E-06  4656   0.685E-03    0.413E-03
DAV:   7    -0.557751951648E+03   -0.18821E-05   -0.13431E-06  4260   0.327E-03    0.174E-03
DAV:   8    -0.557751954039E+03   -0.23906E-05   -0.30393E-07  3564   0.128E-03    0.753E-04
DAV:   9    -0.557751956720E+03   -0.26808E-05   -0.69388E-08  2688   0.616E-04    0.470E-04
DAV:  10    -0.557751961504E+03   -0.47845E-05   -0.25578E-07  3348   0.705E-04    0.294E-04
DAV:  11    -0.557751964006E+03   -0.25018E-05   -0.43593E-08  2832   0.338E-04    0.204E-04
DAV:  12    -0.557751967050E+03   -0.30439E-05   -0.95113E-08  2988   0.380E-04    0.976E-05
DAV:  13    -0.557751968109E+03   -0.10588E-05   -0.12928E-08  2868   0.190E-04    0.653E-05
DAV:  14    -0.557751969123E+03   -0.10143E-05   -0.73981E-09  2700   0.146E-04    0.396E-05
DAV:  15    -0.557751969675E+03   -0.55191E-06   -0.12051E-09  2736   0.103E-04    0.266E-05
DAV:  16    -0.557751970130E+03   -0.45537E-06   -0.13119E-09  2760   0.897E-05    0.134E-05
DAV:  17    -0.557751970313E+03   -0.18299E-06    0.20077E-09  2568   0.633E-05    0.763E-06
DAV:  18    -0.557751970408E+03   -0.94526E-07    0.31189E-09  2532   0.415E-05
  13 F= -.56505268E+03 E0= -.56505268E+03  d E =0.110933E-02
       N       E                     dE             d eps       ncg     rms          rms(c)
DAV:   1    -0.557758857882E+03   -0.68876E-02   -0.22794E-01  4116   0.138E+00    0.131E-01
DAV:   2    -0.557758982634E+03   -0.12475E-03   -0.59007E-03  4524   0.208E-01    0.903E-02
DAV:   3    -0.557758785578E+03    0.19706E-03   -0.60689E-04  4716   0.684E-02    0.426E-02
DAV:   4    -0.557758744103E+03    0.41475E-04   -0.11542E-04  4572   0.293E-02    0.174E-02
DAV:   5    -0.557758738140E+03    0.59626E-05   -0.23735E-05  4620   0.121E-02    0.749E-03
DAV:   6    -0.557758738513E+03   -0.37240E-06   -0.38592E-06  4464   0.525E-03    0.368E-03
DAV:   7    -0.557758743389E+03   -0.48765E-05   -0.10940E-06  4464   0.277E-03    0.138E-03
DAV:   8    -0.557758747678E+03   -0.42892E-05   -0.26123E-07  3540   0.115E-03    0.631E-04
DAV:   9    -0.557758752405E+03   -0.47267E-05   -0.13374E-07  3312   0.698E-04    0.405E-04
DAV:  10    -0.557758759324E+03   -0.69188E-05   -0.38105E-07  3636   0.832E-04    0.260E-04
DAV:  11    -0.557758762139E+03   -0.28155E-05   -0.67009E-08  2952   0.417E-04    0.163E-04
DAV:  12    -0.557758764950E+03   -0.28106E-05   -0.15287E-07  3408   0.459E-04    0.874E-05
DAV:  13    -0.557758765867E+03   -0.91703E-06   -0.15967E-08  2940   0.217E-04    0.618E-05
DAV:  14    -0.557758766568E+03   -0.70062E-06   -0.16109E-08  2760   0.180E-04    0.338E-05
DAV:  15    -0.557758766851E+03   -0.28330E-06   -0.22803E-09  2676   0.114E-04    0.229E-05
DAV:  16    -0.557758767032E+03   -0.18062E-06   -0.94887E-10  2700   0.962E-05    0.122E-05
DAV:  17    -0.557758767106E+03   -0.74193E-07    0.18338E-09  2544   0.623E-05
  14 F= -.56505566E+03 E0= -.56505566E+03  d E =-.297408E-02
