 vasp.5.4.4.18Apr17-6-g9f103f2a35 (build Jan 12 2023 11:40:15) complex          
  
 executed on             LinuxIFC date 2023.12.04  09:30:00
 running on   48 total cores
 distrk:  each k-point on   48 cores,    1 groups
 distr:  one band on NCORES_PER_BAND=   8 cores,    6 groups


--------------------------------------------------------------------------------------------------------


 INCAR:
 POTCAR:    PAW_PBE C 08Apr2002                   
 POTCAR:    PAW_PBE C 08Apr2002                   
   SHA256 =  253f7b50bb8d59471dbedb8285d89021f4a42ed1a2c5d38a03a736e69125dd95 C/
   COPYR  = (c) Copyright 08Apr2002 Georg Kresse                                
   COPYR  = This file is part of the software VASP. Any use, copying, and all ot
   COPYR  = If you do not have a valid VASP license, you may not use, copy or di
   VRHFIN =C: s2p2                                                              
   LEXCH  = PE                                                                  
   EATOM  =   147.1560 eV,   10.8157 Ry                                         
                                                                                
   TITEL  = PAW_PBE C 08Apr2002                                                 
   LULTRA =        F    use ultrasoft PP ?                                      
   IUNSCR =        1    unscreen: 0-lin 1-nonlin 2-no                           
   RPACOR =    1.200    partial core radius                                     
   POMASS =   12.011; ZVAL   =    4.000    mass and valenz                      
   RCORE  =    1.500    outmost cutoff radius                                   
   RWIGS  =    1.630; RWIGS  =    0.863    wigner-seitz radius (au A)           
   ENMAX  =  400.000; ENMIN  =  300.000 eV                                      
   ICORE  =        2    local potential                                         
   LCOR   =        T    correct aug charges                                     
   LPAW   =        T    paw PP                                                  
   EAUG   =  644.873                                                            
   DEXC   =    0.000                                                            
   RMAX   =    1.529    core radius for proj-oper                               
   RAUG   =    1.300    factor for augmentation sphere                          
   RDEP   =    1.501    radius for radial grids                                 
   RDEPT  =    1.300    core radius for aug-charge                              
                                                                                
   Atomic configuration                                                         
    4 entries                                                                   
     n  l   j            E        occ.                                          
     1  0  0.50      -273.3789   2.0000                                         
     2  0  0.50       -13.7508   2.0000                                         
     2  1  0.50        -5.2854   2.0000                                         
     3  2  1.50        -5.4423   0.0000                                         
   Description                                                                  
     l       E           TYP  RCUT    TYP  RCUT                                 
     0    -13.7508458     23  1.200                                             
     0     -8.2022199     23  1.200                                             
     1     -5.2854383     23  1.500                                             
     1     34.0145650     23  1.500                                             
     2     -5.4423304      7  1.500                                             
  local pseudopotential read in
  partial core-charges read in
  partial kinetic energy density read in
  atomic valenz-charges read in
  non local Contribution for L=           0  read in
    real space projection operators read in
  non local Contribution for L=           0  read in
    real space projection operators read in
  non local Contribution for L=           1  read in
    real space projection operators read in
  non local Contribution for L=           1  read in
    real space projection operators read in
    PAW grid and wavefunctions read in
 
   number of l-projection  operators is LMAX  =           4
   number of lm-projection operators is LMMAX =           8
 

 ----------------------------------------------------------------------------- 
|                                                                             |
|  ADVICE TO THIS USER RUNNING 'VASP/VAMP'   (HEAR YOUR MASTER'S VOICE ...):  |
|                                                                             |
|      You have a (more or less) 'large supercell' and for larger cells       |
|      it might be more efficient to use real space projection opertators     |
|      So try LREAL= Auto  in the INCAR   file.                               |
|      Mind:          For very  accurate calculation you might also keep the  |
|      reciprocal projection scheme          (i.e. LREAL=.FALSE.)             |
|                                                                             |
 ----------------------------------------------------------------------------- 

  PAW_PBE C 08Apr2002                   :
 energy of atom  1       EATOM= -147.1560
 kinetic energy error for atom=    0.0012 (will be added to EATOM!!)
 
 
 POSCAR: POSCAR file written by OVITO Basic 3.7.1
  positions in direct lattice
  velocities in cartesian coordinates
 exchange correlation table for  LEXCH =        8
   RHO(1)=    0.500       N(1)  =     2000
   RHO(2)=  100.500       N(2)  =     4000
 


--------------------------------------------------------------------------------------------------------


 ion  position               nearest neighbor table
   1  0.995  0.995  0.385-   2 1.42  48 1.43  14 1.43
   2  0.078  0.078  0.386-   1 1.42  17 1.42   5 1.42
   3  0.089  0.089  0.454-  50 1.42  16 1.42   4 1.43
   4  0.173  0.173  0.454-  19 1.42   7 1.42   3 1.43
   5  0.994  0.245  0.386-   2 1.42  52 1.42   6 1.43
   6  0.079  0.328  0.387-   9 1.42  21 1.43   5 1.43
   7  0.090  0.339  0.454-   4 1.42  54 1.43   8 1.45
   8  0.175  0.423  0.451-  23 1.39  11 1.43   7 1.45
   9  0.995  0.494  0.387-   6 1.42  56 1.43  10 1.43
  10  0.079  0.578  0.388-  13 1.43  24 1.43   9 1.43
  11  0.088  0.591  0.451-  12 1.42  58 1.42   8 1.43
  12  0.169  0.676  0.447-  11 1.42  15 1.42  26 1.47
  13  0.994  0.745  0.387-  60 1.42  10 1.43  14 1.43
  14  0.078  0.828  0.387-  28 1.42  13 1.43   1 1.43
  15  0.089  0.839  0.453-  12 1.42  16 1.43  62 1.43
  16  0.172  0.923  0.453-   3 1.42  30 1.42  15 1.43
  17  0.244  0.995  0.386-   2 1.42  29 1.42  18 1.43
  18  0.328  0.079  0.387-  32 1.42  21 1.43  17 1.43
  19  0.339  0.090  0.454-   4 1.42  31 1.43  20 1.45
  20  0.423  0.175  0.451-  23 1.39  34 1.43  19 1.45
  21  0.246  0.246  0.388-   6 1.43  18 1.43  22 1.45
  22  0.329  0.329  0.394-  36 1.43  24 1.43  21 1.45
  23  0.339  0.338  0.450-  20 1.39   8 1.39
  24  0.242  0.497  0.395-  22 1.43  10 1.43  25 1.46
  25  0.308  0.592  0.405-  24 1.46  28 1.47  26 1.54
  26  0.325  0.609  0.435-  27 1.46  12 1.47  25 1.54
  27  0.420  0.674  0.445-  41 1.43  30 1.43  26 1.46
  28  0.241  0.748  0.393-  29 1.42  14 1.42  25 1.47
  29  0.325  0.829  0.389-  28 1.42  17 1.42  43 1.43
  30  0.339  0.838  0.452-  16 1.42  31 1.43  27 1.43
  31  0.422  0.922  0.454-  45 1.42  19 1.43  30 1.43
  32  0.494  0.995  0.386-  18 1.42  44 1.43  33 1.43
  33  0.578  0.079  0.388-  47 1.42  32 1.43  36 1.43
  34  0.591  0.088  0.451-  35 1.42  46 1.42  20 1.43
  35  0.676  0.169  0.447-  34 1.42  49 1.42  38 1.47
  36  0.497  0.242  0.395-  22 1.43  33 1.43  37 1.46
  37  0.592  0.307  0.405-  36 1.46  51 1.47  38 1.54
  38  0.609  0.325  0.435-  39 1.46  35 1.47  37 1.54
  39  0.674  0.420  0.445-  41 1.43  53 1.43  38 1.46
  40  0.578  0.578  0.390-  43 1.39  55 1.39
  41  0.588  0.588  0.446-  27 1.43  39 1.43  42 1.45
  42  0.671  0.671  0.452-  57 1.43  45 1.43  41 1.45
  43  0.493  0.741  0.389-  40 1.39  29 1.43  44 1.45
  44  0.577  0.827  0.386-  59 1.42  32 1.43  43 1.45
  45  0.589  0.838  0.453-  31 1.42  42 1.43  46 1.43
  46  0.672  0.922  0.454-  61 1.42  34 1.42  45 1.43
  47  0.745  0.994  0.387-  60 1.42  33 1.42  48 1.43
  48  0.828  0.078  0.387-  51 1.42  47 1.43   1 1.43
  49  0.839  0.089  0.453-  35 1.42  50 1.43  62 1.43
  50  0.923  0.172  0.453-   3 1.42  53 1.43  49 1.43
  51  0.748  0.241  0.393-  52 1.42  48 1.42  37 1.47
  52  0.829  0.325  0.389-  51 1.42   5 1.42  55 1.43
  53  0.838  0.339  0.452-  50 1.43  39 1.43  54 1.43
  54  0.922  0.422  0.453-  57 1.42   7 1.43  53 1.43
  55  0.741  0.493  0.389-  40 1.39  52 1.43  56 1.45
  56  0.827  0.577  0.386-  59 1.42   9 1.43  55 1.45
  57  0.838  0.588  0.453-  54 1.42  42 1.43  58 1.43
  58  0.922  0.672  0.454-  61 1.42  11 1.42  57 1.43
  59  0.743  0.743  0.386-  44 1.42  56 1.42  60 1.43
  60  0.828  0.828  0.386-  13 1.42  47 1.42  59 1.43
  61  0.839  0.839  0.454-  62 1.42  46 1.42  58 1.42
  62  0.922  0.922  0.455-  61 1.42  15 1.43  49 1.43
 
  LATTYP: Found a simple monoclinic cell.
 ALAT       =    17.0497545948
 B/A-ratio  =     2.9325935292
 C/A-ratio  =     1.5274827517
 COS(beta)  =    -0.9819528776
  
  Lattice vectors:
  
 A1 = ( -14.7634400000,   8.5284800000,   0.0000000000)
 A2 = (   0.0000000000,   0.0000000000, -50.0000000000)
 A3 = (  19.6801600000, -17.0569600000,   0.0000000000)


Analysis of symmetry for initial positions (statically):
=====================================================================
 Subroutine PRICEL returns:
 Original cell was already a primitive cell.
 

 Routine SETGRP: Setting up the symmetry group for a 
 simple monoclinic supercell.


 Subroutine GETGRP returns: Found  1 space group operations
 (whereof  1 operations were pure point group operations)
 out of a pool of  4 trial point group operations.


The static configuration has the point symmetry C_1 .


Analysis of symmetry for dynamics (positions and initial velocities):
=====================================================================
 Subroutine PRICEL returns:
 Original cell was already a primitive cell.
 

 Routine SETGRP: Setting up the symmetry group for a 
 simple monoclinic supercell.


 Subroutine GETGRP returns: Found  1 space group operations
 (whereof  1 operations were pure point group operations)
 out of a pool of  4 trial point group operations.


The dynamic configuration has the point symmetry C_1 .


 Subroutine INISYM returns: Found  1 space group operations
 (whereof  1 operations are pure point group operations),
 and found     1 'primitive' translations

 
 

Automatic generation of k-mesh.
 generate k-points for:    5    5    1
Space group operators:
 irot       det(A)        alpha          n_x          n_y          n_z        tau_x        tau_y        tau_z
    1     1.000000     0.000000     1.000000     0.000000     0.000000     0.000000     0.000000     0.000000
 
 Subroutine IBZKPT returns following result:
 ===========================================
 
 Found     13 irreducible k-points:
 
 Following reciprocal coordinates:
            Coordinates               Weight
  0.000000  0.000000  0.000000      1.000000
  0.200000  0.000000  0.000000      2.000000
  0.400000  0.000000  0.000000      2.000000
  0.000000  0.200000  0.000000      2.000000
  0.200000  0.200000  0.000000      2.000000
  0.400000  0.200000  0.000000      2.000000
 -0.400000  0.200000  0.000000      2.000000
 -0.200000  0.200000  0.000000      2.000000
  0.000000  0.400000  0.000000      2.000000
  0.200000  0.400000  0.000000      2.000000
  0.400000  0.400000  0.000000      2.000000
 -0.400000  0.400000  0.000000      2.000000
 -0.200000  0.400000  0.000000      2.000000
 
 Following cartesian coordinates:
            Coordinates               Weight
  0.000000  0.000000  0.000000      1.000000
  0.020311 -0.011741  0.000000      2.000000
  0.040623 -0.023482  0.000000      2.000000
  0.000000  0.023451  0.000000      2.000000
  0.020311  0.011710  0.000000      2.000000
  0.040623 -0.000032  0.000000      2.000000
 -0.040623  0.046933  0.000000      2.000000
 -0.020311  0.035192  0.000000      2.000000
  0.000000  0.046902  0.000000      2.000000
  0.020311  0.035160  0.000000      2.000000
  0.040623  0.023419  0.000000      2.000000
 -0.040623  0.070384  0.000000      2.000000
 -0.020311  0.058643  0.000000      2.000000
 
 TETIRR: Found     72 inequivalent tetrahedra from      150


--------------------------------------------------------------------------------------------------------




 Dimension of arrays:
   k-points           NKPTS =     13   k-points in BZ     NKDIM =     13   number of bands    NBANDS=    156
   number of dos      NEDOS =    301   number of ions     NIONS =     62
   non local maximal  LDIM  =      4   non local SUM 2l+1 LMDIM =      8
   total plane-waves  NPLWV = ******
   max r-space proj   IRMAX =      1   max aug-charges    IRDMAX=  12631
   dimension x,y,z NGX =    96 NGY =   96 NGZ =  480
   dimension x,y,z NGXF=   192 NGYF=  192 NGZF=  960
   support grid    NGXF=   192 NGYF=  192 NGZF=  960
   ions per type =              62
   NGX,Y,Z   is equivalent  to a cutoff of  16.21, 16.20, 15.96 a.u.
   NGXF,Y,Z  is equivalent  to a cutoff of  32.42, 32.40, 31.92 a.u.

 SYSTEM =  unknown system                          
 POSCAR =  POSCAR file written by OVITO Basic 3.7.1

 Startparameter for this run:
   NWRITE =      2    write-flag & timer
   PREC   = accura    normal or accurate (medium, high low for compatibility)
   ISTART =      0    job   : 0-new  1-cont  2-samecut
   ICHARG =      2    charge: 1-file 2-atom 10-const
   ISPIN  =      1    spin polarized calculation?
   LNONCOLLINEAR =      F non collinear calculations
   LSORBIT =      F    spin-orbit coupling
   INIWAV =      1    electr: 0-lowe 1-rand  2-diag
   LASPH  =      F    aspherical Exc in radial PAW
   METAGGA=      F    non-selfconsistent MetaGGA calc.

 Electronic Relaxation 1
   ENCUT  =  850.0 eV  62.47 Ry    7.90 a.u.  23.41 23.42118.86*2*pi/ulx,y,z
   ENINI  =  850.0     initial cutoff
   ENAUG  =  644.9 eV  augmentation charge cutoff
   NELM   =    150;   NELMIN=  2; NELMDL= -5     # of ELM steps 
   EDIFF  = 0.1E-06   stopping-criterion for ELM
   LREAL  =      F    real-space projection
   NLSPLINE    = F    spline interpolate recip. space projectors
   LCOMPAT=      F    compatible to vasp.4.4
   GGA_COMPAT  = T    GGA compatible to vasp.4.4-vasp.4.6
   LMAXPAW     = -100 max onsite density
   LMAXMIX     =    2 max onsite mixed and CHGCAR
   VOSKOWN=      0    Vosko Wilk Nusair interpolation
   ROPT   =    0.00000
 Ionic relaxation
   EDIFFG = 0.1E-01   stopping-criterion for IOM
   NSW    =   1000    number of steps for IOM
   NBLOCK =      1;   KBLOCK =   1000    inner block; outer block 
   IBRION =      1    ionic relax: 0-MD 1-quasi-New 2-CG
   NFREE  =      0    steps in history (QN), initial steepest desc. (CG)
   ISIF   =      3    stress and relaxation
   IWAVPR =     11    prediction:  0-non 1-charg 2-wave 3-comb
   ISYM   =      2    0-nonsym 1-usesym 2-fastsym
   LCORR  =      T    Harris-Foulkes like correction to forces

   POTIM  = 0.5000    time-step for ionic-motion
   TEIN   =    0.0    initial temperature
   TEBEG  =    0.0;   TEEND  =   0.0 temperature during run
   SMASS  =  -3.00    Nose mass-parameter (am)
   estimated Nose-frequenzy (Omega)   =  0.10E-29 period in steps =****** mass=  -0.222E-26a.u.
   SCALEE = 1.0000    scale energy and forces
   NPACO  =    256;   APACO  = 16.0  distance and # of slots for P.C.
   PSTRESS=    0.0 pullay stress

  Mass of Ions in am
   POMASS =  12.01
  Ionic Valenz
   ZVAL   =   4.00
  Atomic Wigner-Seitz radii
   RWIGS  =  -1.00
  virtual crystal weights 
   VCA    =   1.00
   NELECT =     248.0000    total number of electrons
   NUPDOWN=      -1.0000    fix difference up-down

 DOS related values:
   EMIN   =  10.00;   EMAX   =-10.00  energy-range for DOS
   EFERMI =   0.00
   ISMEAR =    -5;   SIGMA  =   0.02  broadening in eV -4-tet -1-fermi 0-gaus

 Electronic relaxation 2 (details)
   IALGO  =     38    algorithm
   LDIAG  =      T    sub-space diagonalisation (order eigenvalues)
   LSUBROT=      F    optimize rotation matrix (better conditioning)
   TURBO    =      0    0=normal 1=particle mesh
   IRESTART =      0    0=no restart 2=restart with 2 vectors
   NREBOOT  =      0    no. of reboots
   NMIN     =      0    reboot dimension
   EREF     =   0.00    reference energy to select bands
   IMIX   =      4    mixing-type and parameters
     AMIX     =   0.40;   BMIX     =  1.00
     AMIX_MAG =   1.60;   BMIX_MAG =  1.00
     AMIN     =   0.10
     WC   =   100.;   INIMIX=   1;  MIXPRE=   1;  MAXMIX= -45

 Intra band minimization:
   WEIMIN = 0.0010     energy-eigenvalue tresh-hold
   EBREAK =  0.16E-09  absolut break condition
   DEPER  =   0.30     relativ break condition  

   TIME   =   0.40     timestep for ELM

  volume/ion in A,a.u.               =      67.72       457.02
  Fermi-wavevector in a.u.,A,eV,Ry     =   0.637550  1.204795  5.530362  0.406470
  Thomas-Fermi vector in A             =   1.702594
 
 Write flags
   LWAVE        =      F    write WAVECAR
   LDOWNSAMPLE  =      F    k-point downsampling of WAVECAR
   LCHARG       =      F    write CHGCAR
   LVTOT        =      F    write LOCPOT, total local potential
   LVHAR        =      F    write LOCPOT, Hartree potential only
   LELF         =      F    write electronic localiz. function (ELF)
   LORBIT       =      0    0 simple, 1 ext, 2 COOP (PROOUT), +10 PAW based schemes


 Dipole corrections
   LMONO  =      F    monopole corrections only (constant potential shift)
   LDIPOL =      F    correct potential (dipole corrections)
   IDIPOL =      0    1-x, 2-y, 3-z, 4-all directions 
   EPSILON=  1.0000000 bulk dielectric constant

 Exchange correlation treatment:
   GGA     =    --    GGA type
   LEXCH   =     8    internal setting for exchange type
   VOSKOWN=      0    Vosko Wilk Nusair interpolation
   LHFCALC =     F    Hartree Fock is set to
   LHFONE  =     F    Hartree Fock one center treatment
   AEXX    =    0.0000 exact exchange contribution

 Linear response parameters
   LEPSILON=     F    determine dielectric tensor
   LRPA    =     F    only Hartree local field effects (RPA)
   LNABLA  =     F    use nabla operator in PAW spheres
   LVEL    =     F    velocity operator in full k-point grid
   LINTERFAST=   F  fast interpolation
   KINTER  =     0    interpolate to denser k-point grid
   CSHIFT  =0.1000    complex shift for real part using Kramers Kronig
   OMEGAMAX=  -1.0    maximum frequency
   DEG_THRESHOLD= 0.2000000E-02 threshold for treating states as degnerate
   RTIME   =   -0.100 relaxation time in fs
  (WPLASMAI=    0.000 imaginary part of plasma frequency in eV, 0.658/RTIME)
   DFIELD  = 0.0000000 0.0000000 0.0000000 field for delta impulse in time
 
 Orbital magnetization related:
   ORBITALMAG=     F  switch on orbital magnetization
   LCHIMAG   =     F  perturbation theory with respect to B field
   DQ        =  0.001000  dq finite difference perturbation B field
   LLRAUG    =     F  two centre corrections for induced B field



--------------------------------------------------------------------------------------------------------


 quasi-Newton-method for relaxation of ions
 charge density and potential will be updated during run
 non-spin polarized calculation
 Variant of blocked Davidson
 Davidson routine will perform the subspace rotation
 perform sub-space diagonalisation
    after iterative eigenvector-optimisation
 modified Broyden-mixing scheme, WC =      100.0
 initial mixing is a Kerker type mixing with AMIX =  0.4000 and BMIX =      1.0000
 Hartree-type preconditioning will be used
 using additional bands           32
 reciprocal scheme for non local part
 use partial core corrections
 calculate Harris-corrections to forces 
   (improved forces if not selfconsistent)
 use gradient corrections 
 use of overlap-Matrix (Vanderbilt PP)
 Fermi weights with tetrahedron method with Bloechl corrections


--------------------------------------------------------------------------------------------------------


  energy-cutoff  :      850.00
  volume of cell :     4198.88
      direct lattice vectors                 reciprocal lattice vectors
     9.846720000  0.000000000  0.000000000     0.101556660 -0.058706163  0.000000000
     4.930000000  8.528480000  0.000000000     0.000000000  0.117254188  0.000000000
     0.000000000  0.000000000 50.000000000     0.000000000  0.000000000  0.020000000

  length of vectors
     9.846720000  9.850881743 50.000000000     0.117303746  0.117254188  0.020000000


 
 k-points in units of 2pi/SCALE and weight: read from INCAR                         
   0.00000000  0.00000000  0.00000000       0.040
   0.02031133 -0.01174123  0.00000000       0.080
   0.04062266 -0.02348247  0.00000000       0.080
   0.00000000  0.02345084  0.00000000       0.080
   0.02031133  0.01170961  0.00000000       0.080
   0.04062266 -0.00003163  0.00000000       0.080
  -0.04062266  0.04693330  0.00000000       0.080
  -0.02031133  0.03519207  0.00000000       0.080
   0.00000000  0.04690168  0.00000000       0.080
   0.02031133  0.03516044  0.00000000       0.080
   0.04062266  0.02341921  0.00000000       0.080
  -0.04062266  0.07038414  0.00000000       0.080
  -0.02031133  0.05864291  0.00000000       0.080
 
 k-points in reciprocal lattice and weights: read from INCAR                         
   0.00000000  0.00000000  0.00000000       0.040
   0.20000000  0.00000000  0.00000000       0.080
   0.40000000  0.00000000  0.00000000       0.080
   0.00000000  0.20000000  0.00000000       0.080
   0.20000000  0.20000000  0.00000000       0.080
   0.40000000  0.20000000  0.00000000       0.080
  -0.40000000  0.20000000  0.00000000       0.080
  -0.20000000  0.20000000  0.00000000       0.080
   0.00000000  0.40000000  0.00000000       0.080
   0.20000000  0.40000000  0.00000000       0.080
   0.40000000  0.40000000  0.00000000       0.080
  -0.40000000  0.40000000  0.00000000       0.080
  -0.20000000  0.40000000  0.00000000       0.080
 
 position of ions in fractional coordinates (direct lattice) 
   0.99482267  0.99486898  0.38514455
   0.07791597  0.07805122  0.38594119
   0.08905428  0.08905776  0.45415060
   0.17314716  0.17309796  0.45429847
   0.99443060  0.24454251  0.38646416
   0.07868843  0.32814403  0.38671185
   0.08970095  0.33938871  0.45377929
   0.17533582  0.42312754  0.45143695
   0.99471515  0.49440665  0.38650547
   0.07908503  0.57771148  0.38834608
   0.08792401  0.59128078  0.45063776
   0.16866532  0.67566054  0.44733610
   0.99380282  0.74465252  0.38702507
   0.07756562  0.82799526  0.38705342
   0.08866489  0.83900133  0.45293243
   0.17192410  0.92283901  0.45296478
   0.24442413  0.99459444  0.38644880
   0.32806509  0.07878364  0.38670863
   0.33947215  0.08956684  0.45379489
   0.42325477  0.17508955  0.45146632
   0.24581560  0.24586853  0.38816020
   0.32901794  0.32899769  0.39364306
   0.33883809  0.33849742  0.45049951
   0.24247702  0.49671398  0.39507599
   0.30794401  0.59200704  0.40486762
   0.32452263  0.60908510  0.43504314
   0.41982599  0.67432211  0.44487422
   0.24096234  0.74802534  0.39260747
   0.32518372  0.82888292  0.38932030
   0.33887868  0.83758189  0.45164126
   0.42224107  0.92182694  0.45350335
   0.49436459  0.99473570  0.38649697
   0.57772631  0.07897963  0.38835686
   0.59142195  0.08768311  0.45068102
   0.67564501  0.16853944  0.44739034
   0.49677967  0.24224155  0.39512196
   0.59208073  0.30747897  0.40495256
   0.60866846  0.32455353  0.43512740
   0.67413371  0.41984942  0.44491900
   0.57776332  0.57806622  0.38950102
   0.58758865  0.58756555  0.44635357
   0.67078859  0.67069525  0.45184018
   0.49334881  0.74147476  0.38853509
   0.57713299  0.82699552  0.38620679
   0.58854200  0.83777951  0.45329344
   0.67218001  0.92197282  0.45355515
   0.74468372  0.99372398  0.38703449
   0.82793931  0.07756090  0.38706663
   0.83903988  0.08856840  0.45294591
   0.92280540  0.17191219  0.45297398
   0.74793874  0.24090409  0.39266137
   0.82868019  0.32528430  0.38936382
   0.83752191  0.33885226  0.45165145
   0.92189098  0.42215723  0.45349526
   0.74126916  0.49343418  0.38856494
   0.82690360  0.57717443  0.38622307
   0.83791575  0.58842231  0.45329068
   0.92217496  0.67202262  0.45354018
   0.74346012  0.74346415  0.38570328
   0.82755099  0.82750401  0.38584997
   0.83868947  0.83851371  0.45406337
   0.92178457  0.92169749  0.45485734
 
 position of ions in cartesian coordinates  (Angst):
  14.70044435  8.48472024 19.25722771
   1.15200927  0.66565824 19.29705969
   1.31594734  0.75952730 22.70753013
   2.55830448  1.47626246 22.71492361
  10.99747428  2.08557587 19.32320786
   2.39257304  2.79856981 19.33559228
   2.55644650  2.89446980 22.68896435
   3.81250148  3.60863479 22.57184738
  12.23210631  4.21653724 19.32527350
   3.62684571  4.92700077 19.41730395
   3.78077734  5.04272632 22.53188818
   4.99180662  5.76235744 22.36680515
  13.45683505  6.35075416 19.35125360
   4.84578359  7.06154106 19.35267082
   5.00933495  7.15540607 22.64662131
   6.24248476  7.87041405 22.64823879
   7.31012661  8.48237879 19.32243976
   3.61876838  0.67190469 19.33543140
   3.78425175  0.76386900 22.68974475
   5.03086272  1.49324770 22.57331590
   3.63260928  2.09688485 19.40801003
   4.86170613  2.80585020 19.68215278
   5.00523613  2.88686850 22.52497550
   4.83640321  4.23621527 19.75379954
   5.95083314  5.04892018 20.24338075
   6.19827303  5.19457006 21.75215710
   7.45831701  5.75094263 22.24371084
   6.06045363  6.37951913 19.63037334
   7.28838586  7.06911138 19.46601494
   7.46612218  7.14330037 22.58206296
   8.70229643  7.86178265 22.67516768
   9.77191672  8.48358355 19.32484865
   6.07807879  0.67357622 19.41784324
   6.25584408  0.74780365 22.53405119
   7.48378667  1.43738522 22.36951688
   6.08590115  2.06595221 19.75609787
   7.34592446  2.62232821 20.24762779
   7.59343676  2.76794830 21.75637024
   8.70786354  3.58067734 22.24594985
   8.53894014  4.93002623 19.47505108
   8.68251912  5.01104105 22.31767865
   9.91159503  5.72001099 22.59200906
   8.51333814  6.32365263 19.42675434
   9.75995488  7.05301473 19.31033946
   9.92546123  7.14498577 22.66467213
  11.16409431  7.86302672 22.67775765
  12.23175125  8.47495507 19.35172455
   8.53486181  0.66147660 19.35333149
   8.69843300  0.75535387 22.64729548
   9.93413347  1.46614964 22.64869923
   8.55240051  2.05454574 19.63306866
   9.76343337  2.77418062 19.46819079
   9.91738535  2.88989472 22.58257228
  11.15883753  3.60035952 22.67476280
   9.73170038  4.20824350 19.42824719
  10.98775815  4.92242058 19.31115326
  11.15164376  5.01834790 22.66453420
  12.39347013  5.73133144 22.67700889
  10.98592187  6.34061915 19.28516400
  12.22825767  7.05735139 19.29249830
  12.39221299  7.15124740 22.70316831
  13.62052319  7.86067864 22.74286697
 


--------------------------------------------------------------------------------------------------------


 k-point  1 :   0.0000 0.0000 0.0000  plane waves:  236399
 k-point  2 :   0.2000 0.0000 0.0000  plane waves:  236384
 k-point  3 :   0.4000 0.0000 0.0000  plane waves:  236183
 k-point  4 :   0.0000 0.2000 0.0000  plane waves:  236383
 k-point  5 :   0.2000 0.2000 0.0000  plane waves:  236384
 k-point  6 :   0.4000 0.2000 0.0000  plane waves:  236217
 k-point  7 :  -0.4000 0.2000 0.0000  plane waves:  236260
 k-point  8 :  -0.2000 0.2000 0.0000  plane waves:  236225
 k-point  9 :   0.0000 0.4000 0.0000  plane waves:  236213
 k-point 10 :   0.2000 0.4000 0.0000  plane waves:  236205
 k-point 11 :   0.4000 0.4000 0.0000  plane waves:  236198
 k-point 12 :  -0.4000 0.4000 0.0000  plane waves:  236260
 k-point 13 :  -0.2000 0.4000 0.0000  plane waves:  236256

 maximum and minimum number of plane-waves per node :     29637    29480

 maximum number of plane-waves:    236399
 maximum index in each direction: 
   IXMAX=   23   IYMAX=   23   IZMAX=  118
   IXMIN=  -23   IYMIN=  -23   IZMIN= -118


 parallel 3D FFT for wavefunctions:
    minimum data exchange during FFTs selected (reduces bandwidth)
 parallel 3D FFT for charge:
    minimum data exchange during FFTs selected (reduces bandwidth)


 total amount of memory used by VASP MPI-rank0   343151. kBytes
=======================================================================

   base      :      30000. kBytes
   nonl-proj :      53997. kBytes
   fftplans  :      41100. kBytes
   grid      :      57575. kBytes
   one-center:         24. kBytes
   wavefun   :     160455. kBytes
 
     INWAV:  cpu time    0.0000: real time    0.0000
 Broyden mixing: mesh for mixing (old mesh)
   NGX = 47   NGY = 47   NGZ =237
  (NGX  =192   NGY  =192   NGZ  =960)
  gives a total of 523533 points

 initial charge density was supplied:
 charge density of overlapping atoms calculated
 number of electron     248.0000000 magnetization 
 keeping initial charge density in first step


--------------------------------------------------------------------------------------------------------


 Maximum index for augmentation-charges          578 (set IRDMAX)


--------------------------------------------------------------------------------------------------------


 First call to EWALD:  gamma=   0.110
 Maximum number of real-space cells 5x 5x 1
 Maximum number of reciprocal cells 2x 2x 7

    FEWALD:  cpu time    0.0020: real time    0.0021


--------------------------------------- Iteration      1(   1)  ---------------------------------------


    POTLOK:  cpu time    0.3873: real time    0.3937
    SETDIJ:  cpu time    0.0063: real time    0.0076
     EDDAV:  cpu time   69.7679: real time   69.9443
 BZINTS: Fermi energy:  7.800815;248.000000 electrons
         Band energy:-474.266156;  BLOECHL correction: -0.040527
       DOS:  cpu time    0.0122: real time    0.0123
    --------------------------------------------
      LOOP:  cpu time   70.1737: real time   70.3579

 eigenvalue-minimisations  :  4344
 total energy-change (2. order) : 0.3009046E+04  (-0.1014773E+05)
 number of electron     248.0000000 magnetization 
 augmentation part      248.0000000 magnetization 

 Free energy of the ion-electron system (eV)
  ---------------------------------------------------
  alpha Z        PSCENC =        75.20389891
  Ewald energy   TEWEN  =    211803.64800034
  -Hartree energ DENC   =   -218301.06705276
  -exchange      EXHF   =         0.00000000
  -V(xc)+E(xc)   XCENC  =       817.23367288
  PAW double counting   =      6728.36687556    -6763.67003570
  entropy T*S    EENTRO =         0.00000000
  eigenvalues    EBANDS =      -474.26615599
  atomic energy  EATOM  =      9123.59704331
  Solvation  Ediel_sol  =         0.00000000
  ---------------------------------------------------
  free energy    TOTEN  =      3009.04624655 eV

  energy without entropy =     3009.04624655  energy(sigma->0) =     3009.04624655


--------------------------------------------------------------------------------------------------------




--------------------------------------- Iteration      1(   2)  ---------------------------------------


     EDDAV:  cpu time   97.4934: real time   97.7448
 BZINTS: Fermi energy: -1.688119;248.000000 electrons
         Band energy:***********;  BLOECHL correction: -0.027341
       DOS:  cpu time    0.0111: real time    0.0111
    --------------------------------------------
      LOOP:  cpu time   97.5045: real time   97.7559

 eigenvalue-minimisations  :  6408
 total energy-change (2. order) :-0.2865357E+04  (-0.2697991E+04)
 number of electron     248.0000000 magnetization 
 augmentation part      248.0000000 magnetization 

 Free energy of the ion-electron system (eV)
  ---------------------------------------------------
  alpha Z        PSCENC =        75.20389891
  Ewald energy   TEWEN  =    211803.64800034
  -Hartree energ DENC   =   -218301.06705276
  -exchange      EXHF   =         0.00000000
  -V(xc)+E(xc)   XCENC  =       817.23367288
  PAW double counting   =      6728.36687556    -6763.67003570
  entropy T*S    EENTRO =         0.00000000
  eigenvalues    EBANDS =     -3339.62316162
  atomic energy  EATOM  =      9123.59704331
  Solvation  Ediel_sol  =         0.00000000
  ---------------------------------------------------
  free energy    TOTEN  =       143.68924092 eV

  energy without entropy =      143.68924092  energy(sigma->0) =      143.68924092


--------------------------------------------------------------------------------------------------------




--------------------------------------- Iteration      1(   3)  ---------------------------------------


     EDDAV:  cpu time   80.0015: real time   80.2017
 BZINTS: Fermi energy: -6.668137;248.000000 electrons
         Band energy:***********;  BLOECHL correction:  0.000000
       DOS:  cpu time    0.0026: real time    0.0026
    --------------------------------------------
      LOOP:  cpu time   80.0041: real time   80.2043

 eigenvalue-minimisations  :  5028
 total energy-change (2. order) :-0.7006106E+03  (-0.6969034E+03)
 number of electron     248.0000000 magnetization 
 augmentation part      248.0000000 magnetization 

 Free energy of the ion-electron system (eV)
  ---------------------------------------------------
  alpha Z        PSCENC =        75.20389891
  Ewald energy   TEWEN  =    211803.64800034
  -Hartree energ DENC   =   -218301.06705276
  -exchange      EXHF   =         0.00000000
  -V(xc)+E(xc)   XCENC  =       817.23367288
  PAW double counting   =      6728.36687556    -6763.67003570
  entropy T*S    EENTRO =         0.00000000
  eigenvalues    EBANDS =     -4040.23377420
  atomic energy  EATOM  =      9123.59704331
  Solvation  Ediel_sol  =         0.00000000
  ---------------------------------------------------
  free energy    TOTEN  =      -556.92137166 eV

  energy without entropy =     -556.92137166  energy(sigma->0) =     -556.92137166


--------------------------------------------------------------------------------------------------------




--------------------------------------- Iteration      1(   4)  ---------------------------------------


     EDDAV:  cpu time   79.5555: real time   79.7565
 BZINTS: Fermi energy: -6.919025;248.000000 electrons
         Band energy:***********;  BLOECHL correction:  0.000000
       DOS:  cpu time    0.0025: real time    0.0025
    --------------------------------------------
      LOOP:  cpu time   79.5580: real time   79.7591

 eigenvalue-minimisations  :  4968
 total energy-change (2. order) :-0.3491530E+02  (-0.3447536E+02)
 number of electron     248.0000000 magnetization 
 augmentation part      248.0000000 magnetization 

 Free energy of the ion-electron system (eV)
  ---------------------------------------------------
  alpha Z        PSCENC =        75.20389891
  Ewald energy   TEWEN  =    211803.64800034
  -Hartree energ DENC   =   -218301.06705276
  -exchange      EXHF   =         0.00000000
  -V(xc)+E(xc)   XCENC  =       817.23367288
  PAW double counting   =      6728.36687556    -6763.67003570
  entropy T*S    EENTRO =         0.00000000
  eigenvalues    EBANDS =     -4075.14907519
  atomic energy  EATOM  =      9123.59704331
  Solvation  Ediel_sol  =         0.00000000
  ---------------------------------------------------
  free energy    TOTEN  =      -591.83667265 eV

  energy without entropy =     -591.83667265  energy(sigma->0) =     -591.83667265


--------------------------------------------------------------------------------------------------------




--------------------------------------- Iteration      1(   5)  ---------------------------------------


     EDDAV:  cpu time   82.7371: real time   82.9419
 BZINTS: Fermi energy: -6.968683;248.000000 electrons
         Band energy:***********;  BLOECHL correction:  0.000000
       DOS:  cpu time    0.0027: real time    0.0027
    CHARGE:  cpu time    3.7147: real time    3.7236
    MIXING:  cpu time    0.0114: real time    0.0115
    --------------------------------------------
      LOOP:  cpu time   86.4659: real time   86.6798

 eigenvalue-minimisations  :  5232
 total energy-change (2. order) :-0.9350909E+00  (-0.9275676E+00)
 number of electron     247.9999993 magnetization 
 augmentation part        6.3690273 magnetization 

 Broyden mixing:
  rms(total) = 0.34232E+01    rms(broyden)= 0.34231E+01
  rms(prec ) = 0.34614E+01
  weight for this iteration     100.00

 Free energy of the ion-electron system (eV)
  ---------------------------------------------------
  alpha Z        PSCENC =        75.20389891
  Ewald energy   TEWEN  =    211803.64800034
  -Hartree energ DENC   =   -218301.06705276
  -exchange      EXHF   =         0.00000000
  -V(xc)+E(xc)   XCENC  =       817.23367288
  PAW double counting   =      6728.36687556    -6763.67003570
  entropy T*S    EENTRO =         0.00000000
  eigenvalues    EBANDS =     -4076.08416609
  atomic energy  EATOM  =      9123.59704331
  Solvation  Ediel_sol  =         0.00000000
  ---------------------------------------------------
  free energy    TOTEN  =      -592.77176355 eV

  energy without entropy =     -592.77176355  energy(sigma->0) =     -592.77176355


--------------------------------------------------------------------------------------------------------




--------------------------------------- Iteration      1(   6)  ---------------------------------------


    POTLOK:  cpu time    0.3412: real time    0.3487
    SETDIJ:  cpu time    0.0041: real time    0.0041
     EDDAV:  cpu time   73.9093: real time   74.0932
 BZINTS: Fermi energy: -5.916746;248.000000 electrons
         Band energy:***********;  BLOECHL correction:  0.000000
       DOS:  cpu time    0.0027: real time    0.0027
    CHARGE:  cpu time    3.7331: real time    3.7419
    MIXING:  cpu time    0.0108: real time    0.0109
    --------------------------------------------
      LOOP:  cpu time   78.0012: real time   78.2015

 eigenvalue-minimisations  :  4524
 total energy-change (2. order) : 0.2606828E+02  (-0.2768139E+01)
 number of electron     247.9999993 magnetization 
 augmentation part        6.1085091 magnetization 

 Broyden mixing:
  rms(total) = 0.19963E+01    rms(broyden)= 0.19963E+01
  rms(prec ) = 0.20145E+01
  weight for this iteration     100.00

 eigenvalues of (default mixing * dielectric matrix)
  average eigenvalue GAMMA=   2.1383
  2.1383

 Free energy of the ion-electron system (eV)
  ---------------------------------------------------
  alpha Z        PSCENC =        75.20389891
  Ewald energy   TEWEN  =    211803.64800034
  -Hartree energ DENC   =   -218625.12285059
  -exchange      EXHF   =         0.00000000
  -V(xc)+E(xc)   XCENC  =       831.71034683
  PAW double counting   =     12149.44678750   -12189.06234719
  entropy T*S    EENTRO =         0.00000000
  eigenvalues    EBANDS =     -3736.12436034
  atomic energy  EATOM  =      9123.59704331
  Solvation  Ediel_sol  =         0.00000000
  ---------------------------------------------------
  free energy    TOTEN  =      -566.70348121 eV

  energy without entropy =     -566.70348121  energy(sigma->0) =     -566.70348121


--------------------------------------------------------------------------------------------------------




--------------------------------------- Iteration      1(   7)  ---------------------------------------


    POTLOK:  cpu time    0.3377: real time    0.3436
    SETDIJ:  cpu time    0.0041: real time    0.0041
     EDDAV:  cpu time   73.1715: real time   73.3489
 BZINTS: Fermi energy: -4.526303;248.000000 electrons
         Band energy:***********;  BLOECHL correction:  0.000000
       DOS:  cpu time    0.0023: real time    0.0023
    CHARGE:  cpu time    3.7041: real time    3.7130
    MIXING:  cpu time    0.0116: real time    0.0117
    --------------------------------------------
      LOOP:  cpu time   77.2314: real time   77.4236

 eigenvalue-minimisations  :  4512
 total energy-change (2. order) : 0.8856056E+01  (-0.3175062E+01)
 number of electron     247.9999994 magnetization 
 augmentation part        5.7994831 magnetization 

 Broyden mixing:
  rms(total) = 0.54035E+00    rms(broyden)= 0.54034E+00
  rms(prec ) = 0.54328E+00
  weight for this iteration     100.00

 eigenvalues of (default mixing * dielectric matrix)
  average eigenvalue GAMMA=   1.7563
  1.2356  2.2769

 Free energy of the ion-electron system (eV)
  ---------------------------------------------------
  alpha Z        PSCENC =        75.20389891
  Ewald energy   TEWEN  =    211803.64800034
  -Hartree energ DENC   =   -219055.63739620
  -exchange      EXHF   =         0.00000000
  -V(xc)+E(xc)   XCENC  =       849.50459138
  PAW double counting   =     22129.76914338   -22173.09730477
  entropy T*S    EENTRO =         0.00000000
  eigenvalues    EBANDS =     -3310.83540108
  atomic energy  EATOM  =      9123.59704331
  Solvation  Ediel_sol  =         0.00000000
  ---------------------------------------------------
  free energy    TOTEN  =      -557.84742472 eV

  energy without entropy =     -557.84742472  energy(sigma->0) =     -557.84742472


--------------------------------------------------------------------------------------------------------




--------------------------------------- Iteration      1(   8)  ---------------------------------------


    POTLOK:  cpu time    0.3376: real time    0.3436
    SETDIJ:  cpu time    0.0040: real time    0.0040
     EDDAV:  cpu time   76.8904: real time   77.0775
 BZINTS: Fermi energy: -4.335118;248.000000 electrons
         Band energy:***********;  BLOECHL correction:  0.000000
       DOS:  cpu time    0.0026: real time    0.0026
    CHARGE:  cpu time    3.7193: real time    3.7282
    MIXING:  cpu time    0.0116: real time    0.0116
    --------------------------------------------
      LOOP:  cpu time   80.9654: real time   81.1675

 eigenvalue-minimisations  :  4812
 total energy-change (2. order) : 0.3192526E-01  (-0.1061711E+00)
 number of electron     247.9999994 magnetization 
 augmentation part        5.7719289 magnetization 

 Broyden mixing:
  rms(total) = 0.24609E+00    rms(broyden)= 0.24609E+00
  rms(prec ) = 0.24933E+00
  weight for this iteration     100.00

 eigenvalues of (default mixing * dielectric matrix)
  average eigenvalue GAMMA=   1.7503
  0.8630  2.3980  1.9899

 Free energy of the ion-electron system (eV)
  ---------------------------------------------------
  alpha Z        PSCENC =        75.20389891
  Ewald energy   TEWEN  =    211803.64800034
  -Hartree energ DENC   =   -219110.93941716
  -exchange      EXHF   =         0.00000000
  -V(xc)+E(xc)   XCENC  =       850.07333712
  PAW double counting   =     24081.65765948   -24124.30871203
  entropy T*S    EENTRO =         0.00000000
  eigenvalues    EBANDS =     -3256.74730943
  atomic energy  EATOM  =      9123.59704331
  Solvation  Ediel_sol  =         0.00000000
  ---------------------------------------------------
  free energy    TOTEN  =      -557.81549946 eV

  energy without entropy =     -557.81549946  energy(sigma->0) =     -557.81549946


--------------------------------------------------------------------------------------------------------




--------------------------------------- Iteration      1(   9)  ---------------------------------------


    POTLOK:  cpu time    0.3393: real time    0.3486
    SETDIJ:  cpu time    0.0038: real time    0.0038
     EDDAV:  cpu time   73.6358: real time   73.8153
 BZINTS: Fermi energy: -4.165181;248.000000 electrons
         Band energy:***********;  BLOECHL correction:  0.000000
       DOS:  cpu time    0.0023: real time    0.0023
    CHARGE:  cpu time    3.6808: real time    3.6896
    MIXING:  cpu time    0.0120: real time    0.0120
    --------------------------------------------
      LOOP:  cpu time   77.6740: real time   77.8715

 eigenvalue-minimisations  :  4596
 total energy-change (2. order) : 0.7717135E-01  (-0.2714021E-01)
 number of electron     247.9999994 magnetization 
 augmentation part        5.7776988 magnetization 

 Broyden mixing:
  rms(total) = 0.67895E-01    rms(broyden)= 0.67895E-01
  rms(prec ) = 0.73410E-01
  weight for this iteration     100.00

 eigenvalues of (default mixing * dielectric matrix)
  average eigenvalue GAMMA=   1.5181
  2.4101  2.0837  0.9070  0.6716

 Free energy of the ion-electron system (eV)
  ---------------------------------------------------
  alpha Z        PSCENC =        75.20389891
  Ewald energy   TEWEN  =    211803.64800034
  -Hartree energ DENC   =   -219157.57787338
  -exchange      EXHF   =         0.00000000
  -V(xc)+E(xc)   XCENC  =       849.82052800
  PAW double counting   =     25130.25390389   -25172.15447135
  entropy T*S    EENTRO =         0.00000000
  eigenvalues    EBANDS =     -3210.52935783
  atomic energy  EATOM  =      9123.59704331
  Solvation  Ediel_sol  =         0.00000000
  ---------------------------------------------------
  free energy    TOTEN  =      -557.73832811 eV

  energy without entropy =     -557.73832811  energy(sigma->0) =     -557.73832811


--------------------------------------------------------------------------------------------------------




--------------------------------------- Iteration      1(  10)  ---------------------------------------


    POTLOK:  cpu time    0.3380: real time    0.3436
    SETDIJ:  cpu time    0.0039: real time    0.0039
     EDDAV:  cpu time   74.9349: real time   75.1364
 BZINTS: Fermi energy: -4.067148;248.000000 electrons
         Band energy:***********;  BLOECHL correction:  0.000000
       DOS:  cpu time    0.0027: real time    0.0027
    CHARGE:  cpu time    3.7169: real time    3.7258
    MIXING:  cpu time    0.0128: real time    0.0128
    --------------------------------------------
      LOOP:  cpu time   79.0092: real time   79.2252

 eigenvalue-minimisations  :  4644
 total energy-change (2. order) : 0.2209864E-01  (-0.5718177E-02)
 number of electron     247.9999994 magnetization 
 augmentation part        5.7775705 magnetization 

 Broyden mixing:
  rms(total) = 0.29016E-01    rms(broyden)= 0.29016E-01
  rms(prec ) = 0.35535E-01
  weight for this iteration     100.00

 eigenvalues of (default mixing * dielectric matrix)
  average eigenvalue GAMMA=   1.4112
  2.2218  2.2218  1.0257  0.9428  0.6440

 Free energy of the ion-electron system (eV)
  ---------------------------------------------------
  alpha Z        PSCENC =        75.20389891
  Ewald energy   TEWEN  =    211803.64800034
  -Hartree energ DENC   =   -219176.18264585
  -exchange      EXHF   =         0.00000000
  -V(xc)+E(xc)   XCENC  =       849.90103024
  PAW double counting   =     25195.86622663   -25237.69575901
  entropy T*S    EENTRO =         0.00000000
  eigenvalues    EBANDS =     -3192.05402405
  atomic energy  EATOM  =      9123.59704331
  Solvation  Ediel_sol  =         0.00000000
  ---------------------------------------------------
  free energy    TOTEN  =      -557.71622947 eV

  energy without entropy =     -557.71622947  energy(sigma->0) =     -557.71622947


--------------------------------------------------------------------------------------------------------




--------------------------------------- Iteration      1(  11)  ---------------------------------------


    POTLOK:  cpu time    0.3385: real time    0.3451
    SETDIJ:  cpu time    0.0039: real time    0.0039
     EDDAV:  cpu time   75.3278: real time   75.5101
 BZINTS: Fermi energy: -4.012861;248.000000 electrons
         Band energy:***********;  BLOECHL correction:  0.000000
       DOS:  cpu time    0.0024: real time    0.0024
    CHARGE:  cpu time    3.7091: real time    3.7180
    MIXING:  cpu time    0.0123: real time    0.0123
    --------------------------------------------
      LOOP:  cpu time   79.3940: real time   79.5918

 eigenvalue-minimisations  :  4680
 total energy-change (2. order) : 0.9209747E-02  (-0.1137010E-02)
 number of electron     247.9999994 magnetization 
 augmentation part        5.7753301 magnetization 

 Broyden mixing:
  rms(total) = 0.21193E-01    rms(broyden)= 0.21193E-01
  rms(prec ) = 0.27156E-01
  weight for this iteration     100.00

 eigenvalues of (default mixing * dielectric matrix)
  average eigenvalue GAMMA=   1.4881
  2.2678  2.2678  1.7732  0.9801  0.9801  0.6595

 Free energy of the ion-electron system (eV)
  ---------------------------------------------------
  alpha Z        PSCENC =        75.20389891
  Ewald energy   TEWEN  =    211803.64800034
  -Hartree energ DENC   =   -219199.01794529
  -exchange      EXHF   =         0.00000000
  -V(xc)+E(xc)   XCENC  =       850.05021854
  PAW double counting   =     25132.31227013   -25174.14621218
  entropy T*S    EENTRO =         0.00000000
  eigenvalues    EBANDS =     -3169.35429348
  atomic energy  EATOM  =      9123.59704331
  Solvation  Ediel_sol  =         0.00000000
  ---------------------------------------------------
  free energy    TOTEN  =      -557.70701972 eV

  energy without entropy =     -557.70701972  energy(sigma->0) =     -557.70701972


--------------------------------------------------------------------------------------------------------




--------------------------------------- Iteration      1(  12)  ---------------------------------------


    POTLOK:  cpu time    0.3440: real time    0.3634
    SETDIJ:  cpu time    0.0037: real time    0.0037
     EDDAV:  cpu time   73.2744: real time   73.4529
 BZINTS: Fermi energy: -3.846998;248.000000 electrons
         Band energy:***********;  BLOECHL correction:  0.000000
       DOS:  cpu time    0.0024: real time    0.0024
    CHARGE:  cpu time    3.6966: real time    3.7054
    MIXING:  cpu time    0.0128: real time    0.0128
    --------------------------------------------
      LOOP:  cpu time   77.3338: real time   77.5407

 eigenvalue-minimisations  :  4512
 total energy-change (2. order) : 0.9173140E-02  (-0.1061714E-02)
 number of electron     247.9999994 magnetization 
 augmentation part        5.7724380 magnetization 

 Broyden mixing:
  rms(total) = 0.13382E-01    rms(broyden)= 0.13382E-01
  rms(prec ) = 0.17694E-01
  weight for this iteration     100.00

 eigenvalues of (default mixing * dielectric matrix)
  average eigenvalue GAMMA=   1.6094
  3.1567  2.5423  1.9335  1.0449  0.9562  0.9562  0.6762

 Free energy of the ion-electron system (eV)
  ---------------------------------------------------
  alpha Z        PSCENC =        75.20389891
  Ewald energy   TEWEN  =    211803.64800034
  -Hartree energ DENC   =   -219237.94756079
  -exchange      EXHF   =         0.00000000
  -V(xc)+E(xc)   XCENC  =       850.29388265
  PAW double counting   =     25084.50021980   -25126.32540399
  entropy T*S    EENTRO =         0.00000000
  eigenvalues    EBANDS =     -3130.66792683
  atomic energy  EATOM  =      9123.59704331
  Solvation  Ediel_sol  =         0.00000000
  ---------------------------------------------------
  free energy    TOTEN  =      -557.69784658 eV

  energy without entropy =     -557.69784658  energy(sigma->0) =     -557.69784658


--------------------------------------------------------------------------------------------------------




--------------------------------------- Iteration      1(  13)  ---------------------------------------


    POTLOK:  cpu time    0.3474: real time    0.3545
    SETDIJ:  cpu time    0.0036: real time    0.0036
     EDDAV:  cpu time   73.6252: real time   73.8019
 BZINTS: Fermi energy: -3.665600;248.000000 electrons
         Band energy:***********;  BLOECHL correction:  0.000000
       DOS:  cpu time    0.0024: real time    0.0024
    CHARGE:  cpu time    3.6960: real time    3.7048
    MIXING:  cpu time    0.0144: real time    0.0144
    --------------------------------------------
      LOOP:  cpu time   77.6889: real time   77.8816

 eigenvalue-minimisations  :  4488
 total energy-change (2. order) : 0.2501551E-03  (-0.8709829E-03)
 number of electron     247.9999994 magnetization 
 augmentation part        5.7706884 magnetization 

 Broyden mixing:
  rms(total) = 0.78713E-02    rms(broyden)= 0.78713E-02
  rms(prec ) = 0.10173E-01
  weight for this iteration     100.00

 eigenvalues of (default mixing * dielectric matrix)
  average eigenvalue GAMMA=   1.7330
  4.1166  2.2743  1.9432  1.9432  1.0712  0.9167  0.9167  0.6821

 Free energy of the ion-electron system (eV)
  ---------------------------------------------------
  alpha Z        PSCENC =        75.20389891
  Ewald energy   TEWEN  =    211803.64800034
  -Hartree energ DENC   =   -219276.33927540
  -exchange      EXHF   =         0.00000000
  -V(xc)+E(xc)   XCENC  =       850.48968244
  PAW double counting   =     25086.29017435   -25128.08796224
  entropy T*S    EENTRO =         0.00000000
  eigenvalues    EBANDS =     -3092.49915814
  atomic energy  EATOM  =      9123.59704331
  Solvation  Ediel_sol  =         0.00000000
  ---------------------------------------------------
  free energy    TOTEN  =      -557.69759643 eV

  energy without entropy =     -557.69759643  energy(sigma->0) =     -557.69759643


--------------------------------------------------------------------------------------------------------




--------------------------------------- Iteration      1(  14)  ---------------------------------------


    POTLOK:  cpu time    0.3384: real time    0.3453
    SETDIJ:  cpu time    0.0038: real time    0.0038
     EDDAV:  cpu time   71.4502: real time   71.6312
 BZINTS: Fermi energy: -3.562363;248.000000 electrons
         Band energy:***********;  BLOECHL correction:  0.000000
       DOS:  cpu time    0.0026: real time    0.0026
    CHARGE:  cpu time    3.7130: real time    3.7218
    MIXING:  cpu time    0.0136: real time    0.0136
    --------------------------------------------
      LOOP:  cpu time   75.5216: real time   75.7184

 eigenvalue-minimisations  :  4284
 total energy-change (2. order) :-0.5057849E-02  (-0.2698100E-03)
 number of electron     247.9999994 magnetization 
 augmentation part        5.7697191 magnetization 

 Broyden mixing:
  rms(total) = 0.46474E-02    rms(broyden)= 0.46474E-02
  rms(prec ) = 0.58087E-02
  weight for this iteration     100.00

 eigenvalues of (default mixing * dielectric matrix)
  average eigenvalue GAMMA=   1.9039
  5.6363  2.5231  2.3298  1.9447  0.6830  1.1209  1.0186  0.9396  0.9396

 Free energy of the ion-electron system (eV)
  ---------------------------------------------------
  alpha Z        PSCENC =        75.20389891
  Ewald energy   TEWEN  =    211803.64800034
  -Hartree energ DENC   =   -219300.24415813
  -exchange      EXHF   =         0.00000000
  -V(xc)+E(xc)   XCENC  =       850.56317164
  PAW double counting   =     25099.33079997   -25141.12119814
  entropy T*S    EENTRO =         0.00000000
  eigenvalues    EBANDS =     -3068.68021217
  atomic energy  EATOM  =      9123.59704331
  Solvation  Ediel_sol  =         0.00000000
  ---------------------------------------------------
  free energy    TOTEN  =      -557.70265427 eV

  energy without entropy =     -557.70265427  energy(sigma->0) =     -557.70265427


--------------------------------------------------------------------------------------------------------




--------------------------------------- Iteration      1(  15)  ---------------------------------------


    POTLOK:  cpu time    0.3416: real time    0.3760
    SETDIJ:  cpu time    0.0040: real time    0.0040
     EDDAV:  cpu time   72.6851: real time   72.8635
 BZINTS: Fermi energy: -3.535163;248.000000 electrons
         Band energy:***********;  BLOECHL correction:  0.000000
       DOS:  cpu time    0.0021: real time    0.0021
    CHARGE:  cpu time    3.7338: real time    3.7428
    MIXING:  cpu time    0.0135: real time    0.0135
    --------------------------------------------
      LOOP:  cpu time   76.7801: real time   77.0018

 eigenvalue-minimisations  :  4416
 total energy-change (2. order) :-0.5004908E-02  (-0.7906622E-04)
 number of electron     247.9999994 magnetization 
 augmentation part        5.7690584 magnetization 

 Broyden mixing:
  rms(total) = 0.25027E-02    rms(broyden)= 0.25027E-02
  rms(prec ) = 0.30769E-02
  weight for this iteration     100.00

 eigenvalues of (default mixing * dielectric matrix)
  average eigenvalue GAMMA=   1.9516
  6.1159  2.7015  2.1705  2.1705  1.5731  1.3557  0.6836  0.9223  0.9114  0.9114

 Free energy of the ion-electron system (eV)
  ---------------------------------------------------
  alpha Z        PSCENC =        75.20389891
  Ewald energy   TEWEN  =    211803.64800034
  -Hartree energ DENC   =   -219315.08143775
  -exchange      EXHF   =         0.00000000
  -V(xc)+E(xc)   XCENC  =       850.59002934
  PAW double counting   =     25079.11904047   -25120.91533249
  entropy T*S    EENTRO =         0.00000000
  eigenvalues    EBANDS =     -3053.86890132
  atomic energy  EATOM  =      9123.59704331
  Solvation  Ediel_sol  =         0.00000000
  ---------------------------------------------------
  free energy    TOTEN  =      -557.70765918 eV

  energy without entropy =     -557.70765918  energy(sigma->0) =     -557.70765918


--------------------------------------------------------------------------------------------------------




--------------------------------------- Iteration      1(  16)  ---------------------------------------


    POTLOK:  cpu time    0.3402: real time    0.3495
    SETDIJ:  cpu time    0.0040: real time    0.0040
     EDDAV:  cpu time   73.3688: real time   73.5486
 BZINTS: Fermi energy: -3.509780;248.000000 electrons
         Band energy:***********;  BLOECHL correction:  0.000000
       DOS:  cpu time    0.0027: real time    0.0027
    CHARGE:  cpu time    3.6831: real time    3.6919
    MIXING:  cpu time    0.0145: real time    0.0145
    --------------------------------------------
      LOOP:  cpu time   77.4133: real time   77.6113

 eigenvalue-minimisations  :  4500
 total energy-change (2. order) :-0.3146582E-02  (-0.1270138E-04)
 number of electron     247.9999994 magnetization 
 augmentation part        5.7689649 magnetization 

 Broyden mixing:
  rms(total) = 0.14731E-02    rms(broyden)= 0.14731E-02
  rms(prec ) = 0.18408E-02
  weight for this iteration     100.00

 eigenvalues of (default mixing * dielectric matrix)
  average eigenvalue GAMMA=   1.9822
  6.5738  3.1848  2.3016  2.0862  1.8846  1.2616  0.6842  1.0450  0.9150  0.9334
  0.9334

 Free energy of the ion-electron system (eV)
  ---------------------------------------------------
  alpha Z        PSCENC =        75.20389891
  Ewald energy   TEWEN  =    211803.64800034
  -Hartree energ DENC   =   -219319.91683441
  -exchange      EXHF   =         0.00000000
  -V(xc)+E(xc)   XCENC  =       850.58485746
  PAW double counting   =     25078.47911952   -25120.27330198
  entropy T*S    EENTRO =         0.00000000
  eigenvalues    EBANDS =     -3049.03358893
  atomic energy  EATOM  =      9123.59704331
  Solvation  Ediel_sol  =         0.00000000
  ---------------------------------------------------
  free energy    TOTEN  =      -557.71080576 eV

  energy without entropy =     -557.71080576  energy(sigma->0) =     -557.71080576


--------------------------------------------------------------------------------------------------------




--------------------------------------- Iteration      1(  17)  ---------------------------------------


    POTLOK:  cpu time    0.3510: real time    0.3667
    SETDIJ:  cpu time    0.0042: real time    0.0042
     EDDAV:  cpu time   74.3057: real time   74.5151
 BZINTS: Fermi energy: -3.475155;248.000000 electrons
         Band energy:***********;  BLOECHL correction:  0.000000
       DOS:  cpu time    0.0026: real time    0.0026
    CHARGE:  cpu time    3.6930: real time    3.7019
    MIXING:  cpu time    0.0145: real time    0.0145
    --------------------------------------------
      LOOP:  cpu time   78.3710: real time   78.6050

 eigenvalue-minimisations  :  4536
 total energy-change (2. order) :-0.2030406E-02  (-0.6399375E-05)
 number of electron     247.9999994 magnetization 
 augmentation part        5.7688783 magnetization 

 Broyden mixing:
  rms(total) = 0.94989E-03    rms(broyden)= 0.94989E-03
  rms(prec ) = 0.11595E-02
  weight for this iteration     100.00

 eigenvalues of (default mixing * dielectric matrix)
  average eigenvalue GAMMA=   1.9831
  7.0234  3.5876  2.3736  1.9817  1.9817  1.3482  1.3482  0.9205  0.9205  0.9079
  0.6840  0.7196

 Free energy of the ion-electron system (eV)
  ---------------------------------------------------
  alpha Z        PSCENC =        75.20389891
  Ewald energy   TEWEN  =    211803.64800034
  -Hartree energ DENC   =   -219323.00809492
  -exchange      EXHF   =         0.00000000
  -V(xc)+E(xc)   XCENC  =       850.58561689
  PAW double counting   =     25079.10565444   -25120.90041584
  entropy T*S    EENTRO =         0.00000000
  eigenvalues    EBANDS =     -3045.94453931
  atomic energy  EATOM  =      9123.59704331
  Solvation  Ediel_sol  =         0.00000000
  ---------------------------------------------------
  free energy    TOTEN  =      -557.71283617 eV

  energy without entropy =     -557.71283617  energy(sigma->0) =     -557.71283617


--------------------------------------------------------------------------------------------------------




--------------------------------------- Iteration      1(  18)  ---------------------------------------


    POTLOK:  cpu time    0.3357: real time    0.3426
    SETDIJ:  cpu time    0.0040: real time    0.0040
     EDDAV:  cpu time   75.4930: real time   75.6856
 BZINTS: Fermi energy: -3.463809;248.000000 electrons
         Band energy:***********;  BLOECHL correction:  0.000000
       DOS:  cpu time    0.0027: real time    0.0027
    CHARGE:  cpu time    3.7235: real time    3.7324
    MIXING:  cpu time    0.0151: real time    0.0152
    --------------------------------------------
      LOOP:  cpu time   79.5740: real time   79.7825

 eigenvalue-minimisations  :  4632
 total energy-change (2. order) :-0.1017892E-02  (-0.2468415E-05)
 number of electron     247.9999994 magnetization 
 augmentation part        5.7688348 magnetization 

 Broyden mixing:
  rms(total) = 0.62214E-03    rms(broyden)= 0.62214E-03
  rms(prec ) = 0.76248E-03
  weight for this iteration     100.00

 eigenvalues of (default mixing * dielectric matrix)
  average eigenvalue GAMMA=   2.0264
  7.4772  4.0996  2.3813  2.3813  1.7869  1.5201  1.5201  0.9335  0.9335  1.0418
  0.9602  0.6841  0.6233

 Free energy of the ion-electron system (eV)
  ---------------------------------------------------
  alpha Z        PSCENC =        75.20389891
  Ewald energy   TEWEN  =    211803.64800034
  -Hartree energ DENC   =   -219324.55896042
  -exchange      EXHF   =         0.00000000
  -V(xc)+E(xc)   XCENC  =       850.58649093
  PAW double counting   =     25079.45135873   -25121.24600827
  entropy T*S    EENTRO =         0.00000000
  eigenvalues    EBANDS =     -3044.39567761
  atomic energy  EATOM  =      9123.59704331
  Solvation  Ediel_sol  =         0.00000000
  ---------------------------------------------------
  free energy    TOTEN  =      -557.71385406 eV

  energy without entropy =     -557.71385406  energy(sigma->0) =     -557.71385406


--------------------------------------------------------------------------------------------------------




--------------------------------------- Iteration      1(  19)  ---------------------------------------


    POTLOK:  cpu time    0.3364: real time    0.3443
    SETDIJ:  cpu time    0.0042: real time    0.0042
     EDDAV:  cpu time   72.7875: real time   72.9662
 BZINTS: Fermi energy: -3.462387;248.000000 electrons
         Band energy:***********;  BLOECHL correction:  0.000000
       DOS:  cpu time    0.0028: real time    0.0028
    CHARGE:  cpu time    3.6857: real time    3.6945
    MIXING:  cpu time    0.0153: real time    0.0154
    --------------------------------------------
      LOOP:  cpu time   76.8319: real time   77.0274

 eigenvalue-minimisations  :  4464
 total energy-change (2. order) :-0.8636051E-03  (-0.2813542E-05)
 number of electron     247.9999994 magnetization 
 augmentation part        5.7688297 magnetization 

 Broyden mixing:
  rms(total) = 0.35658E-03    rms(broyden)= 0.35657E-03
  rms(prec ) = 0.44228E-03
  weight for this iteration     100.00

 eigenvalues of (default mixing * dielectric matrix)
  average eigenvalue GAMMA=   2.0825
  7.7765  4.8426  2.6721  2.3595  1.8571  1.8571  1.3391  1.3391  0.9242  0.9242
  1.0189  0.9458  0.6840  0.6144

 Free energy of the ion-electron system (eV)
  ---------------------------------------------------
  alpha Z        PSCENC =        75.20389891
  Ewald energy   TEWEN  =    211803.64800034
  -Hartree energ DENC   =   -219325.60367019
  -exchange      EXHF   =         0.00000000
  -V(xc)+E(xc)   XCENC  =       850.58623282
  PAW double counting   =     25079.86320284   -25121.65688878
  entropy T*S    EENTRO =         0.00000000
  eigenvalues    EBANDS =     -3043.35253692
  atomic energy  EATOM  =      9123.59704331
  Solvation  Ediel_sol  =         0.00000000
  ---------------------------------------------------
  free energy    TOTEN  =      -557.71471767 eV

  energy without entropy =     -557.71471767  energy(sigma->0) =     -557.71471767


--------------------------------------------------------------------------------------------------------




--------------------------------------- Iteration      1(  20)  ---------------------------------------


    POTLOK:  cpu time    0.3371: real time    0.3434
    SETDIJ:  cpu time    0.0038: real time    0.0038
     EDDAV:  cpu time   74.2770: real time   74.4565
 BZINTS: Fermi energy: -3.465924;248.000000 electrons
         Band energy:***********;  BLOECHL correction:  0.000000
       DOS:  cpu time    0.0027: real time    0.0027
    CHARGE:  cpu time    3.7061: real time    3.7150
    MIXING:  cpu time    0.0167: real time    0.0167
    --------------------------------------------
      LOOP:  cpu time   78.3434: real time   78.5380

 eigenvalue-minimisations  :  4536
 total energy-change (2. order) :-0.4795168E-03  (-0.1727704E-05)
 number of electron     247.9999994 magnetization 
 augmentation part        5.7688094 magnetization 

 Broyden mixing:
  rms(total) = 0.20927E-03    rms(broyden)= 0.20927E-03
  rms(prec ) = 0.25785E-03
  weight for this iteration     100.00

 eigenvalues of (default mixing * dielectric matrix)
  average eigenvalue GAMMA=   2.1283
  8.0491  5.3103  2.9651  2.4669  2.0451  2.0451  1.4443  1.4443  1.0414  1.0414
  0.9299  0.9299  0.9107  0.6842  0.6175

 Free energy of the ion-electron system (eV)
  ---------------------------------------------------
  alpha Z        PSCENC =        75.20389891
  Ewald energy   TEWEN  =    211803.64800034
  -Hartree energ DENC   =   -219326.18867808
  -exchange      EXHF   =         0.00000000
  -V(xc)+E(xc)   XCENC  =       850.58706685
  PAW double counting   =     25079.70274197   -25121.49647767
  entropy T*S    EENTRO =         0.00000000
  eigenvalues    EBANDS =     -3042.76879282
  atomic energy  EATOM  =      9123.59704331
  Solvation  Ediel_sol  =         0.00000000
  ---------------------------------------------------
  free energy    TOTEN  =      -557.71519719 eV

  energy without entropy =     -557.71519719  energy(sigma->0) =     -557.71519719


--------------------------------------------------------------------------------------------------------




--------------------------------------- Iteration      1(  21)  ---------------------------------------


    POTLOK:  cpu time    0.3461: real time    0.3531
    SETDIJ:  cpu time    0.0037: real time    0.0037
     EDDAV:  cpu time   66.2784: real time   66.4393
 BZINTS: Fermi energy: -3.470537;248.000000 electrons
         Band energy:***********;  BLOECHL correction:  0.000000
       DOS:  cpu time    0.0024: real time    0.0024
    CHARGE:  cpu time    3.7045: real time    3.7133
    MIXING:  cpu time    0.0166: real time    0.0166
    --------------------------------------------
      LOOP:  cpu time   70.3517: real time   70.5284

 eigenvalue-minimisations  :  3876
 total energy-change (2. order) :-0.2188761E-03  (-0.5952904E-06)
 number of electron     247.9999994 magnetization 
 augmentation part        5.7688005 magnetization 

 Broyden mixing:
  rms(total) = 0.11778E-03    rms(broyden)= 0.11778E-03
  rms(prec ) = 0.14638E-03
  weight for this iteration     100.00

 eigenvalues of (default mixing * dielectric matrix)
  average eigenvalue GAMMA=   2.1659
  8.1447  5.8997  3.3635  2.5451  2.2332  2.0541  1.5173  1.5173  1.1839  1.1839
  0.9235  0.9235  0.9310  0.9310  0.6842  0.6189

 Free energy of the ion-electron system (eV)
  ---------------------------------------------------
  alpha Z        PSCENC =        75.20389891
  Ewald energy   TEWEN  =    211803.64800034
  -Hartree energ DENC   =   -219326.50590341
  -exchange      EXHF   =         0.00000000
  -V(xc)+E(xc)   XCENC  =       850.58727559
  PAW double counting   =     25079.20968898   -25121.00348264
  entropy T*S    EENTRO =         0.00000000
  eigenvalues    EBANDS =     -3042.45193715
  atomic energy  EATOM  =      9123.59704331
  Solvation  Ediel_sol  =         0.00000000
  ---------------------------------------------------
  free energy    TOTEN  =      -557.71541606 eV

  energy without entropy =     -557.71541606  energy(sigma->0) =     -557.71541606


--------------------------------------------------------------------------------------------------------




--------------------------------------- Iteration      1(  22)  ---------------------------------------


    POTLOK:  cpu time    0.3401: real time    0.3536
    SETDIJ:  cpu time    0.0041: real time    0.0041
     EDDAV:  cpu time   64.4314: real time   64.5883
 BZINTS: Fermi energy: -3.474567;248.000000 electrons
         Band energy:***********;  BLOECHL correction:  0.000000
       DOS:  cpu time    0.0028: real time    0.0028
    CHARGE:  cpu time    3.6853: real time    3.6940
    MIXING:  cpu time    0.0171: real time    0.0171
    --------------------------------------------
      LOOP:  cpu time   68.4807: real time   68.6598

 eigenvalue-minimisations  :  3768
 total energy-change (2. order) :-0.9859832E-04  (-0.1873441E-06)
 number of electron     247.9999994 magnetization 
 augmentation part        5.7687978 magnetization 

 Broyden mixing:
  rms(total) = 0.71732E-04    rms(broyden)= 0.71732E-04
  rms(prec ) = 0.87835E-04
  weight for this iteration     100.00

 eigenvalues of (default mixing * dielectric matrix)
  average eigenvalue GAMMA=   2.2285
  8.2405  6.4360  3.8940  2.7718  2.4063  1.9890  1.9890  1.4389  1.4389  1.1314
  1.1314  0.9289  0.9289  0.9279  0.9279  0.6841  0.6194

 Free energy of the ion-electron system (eV)
  ---------------------------------------------------
  alpha Z        PSCENC =        75.20389891
  Ewald energy   TEWEN  =    211803.64800034
  -Hartree energ DENC   =   -219326.66478321
  -exchange      EXHF   =         0.00000000
  -V(xc)+E(xc)   XCENC  =       850.58710673
  PAW double counting   =     25079.13743567   -25120.93123402
  entropy T*S    EENTRO =         0.00000000
  eigenvalues    EBANDS =     -3042.29298239
  atomic energy  EATOM  =      9123.59704331
  Solvation  Ediel_sol  =         0.00000000
  ---------------------------------------------------
  free energy    TOTEN  =      -557.71551466 eV

  energy without entropy =     -557.71551466  energy(sigma->0) =     -557.71551466


--------------------------------------------------------------------------------------------------------




--------------------------------------- Iteration      1(  23)  ---------------------------------------


    POTLOK:  cpu time    0.3632: real time    0.3915
    SETDIJ:  cpu time    0.0040: real time    0.0040
     EDDAV:  cpu time   62.9653: real time   63.1147
 BZINTS: Fermi energy: -3.477608;248.000000 electrons
         Band energy:***********;  BLOECHL correction:  0.000000
       DOS:  cpu time    0.0024: real time    0.0024
    CHARGE:  cpu time    3.6839: real time    3.6928
    MIXING:  cpu time    0.0168: real time    0.0169
    --------------------------------------------
      LOOP:  cpu time   67.0356: real time   67.2222

 eigenvalue-minimisations  :  3648
 total energy-change (2. order) :-0.5299424E-04  (-0.5466454E-07)
 number of electron     247.9999994 magnetization 
 augmentation part        5.7687945 magnetization 

 Broyden mixing:
  rms(total) = 0.40068E-04    rms(broyden)= 0.40068E-04
  rms(prec ) = 0.47597E-04
  weight for this iteration     100.00

 eigenvalues of (default mixing * dielectric matrix)
  average eigenvalue GAMMA=   2.2613
  8.3904  6.8113  4.4519  2.9399  2.4573  2.0876  2.0876  1.4962  1.4962  1.2333
  1.2333  0.9283  0.9283  0.9714  0.9714  0.9165  0.6842  0.6194

 Free energy of the ion-electron system (eV)
  ---------------------------------------------------
  alpha Z        PSCENC =        75.20389891
  Ewald energy   TEWEN  =    211803.64800034
  -Hartree energ DENC   =   -219326.78911692
  -exchange      EXHF   =         0.00000000
  -V(xc)+E(xc)   XCENC  =       850.58707177
  PAW double counting   =     25079.13763532   -25120.93148415
  entropy T*S    EENTRO =         0.00000000
  eigenvalues    EBANDS =     -3042.16861623
  atomic energy  EATOM  =      9123.59704331
  Solvation  Ediel_sol  =         0.00000000
  ---------------------------------------------------
  free energy    TOTEN  =      -557.71556765 eV

  energy without entropy =     -557.71556765  energy(sigma->0) =     -557.71556765


--------------------------------------------------------------------------------------------------------




--------------------------------------- Iteration      1(  24)  ---------------------------------------


    POTLOK:  cpu time    0.3443: real time    0.3546
    SETDIJ:  cpu time    0.0040: real time    0.0040
     EDDAV:  cpu time   53.4676: real time   53.6004
 BZINTS: Fermi energy: -3.478760;248.000000 electrons
         Band energy:***********;  BLOECHL correction:  0.000000
       DOS:  cpu time    0.0026: real time    0.0026
    CHARGE:  cpu time    3.6928: real time    3.7016
    MIXING:  cpu time    0.0178: real time    0.0179
    --------------------------------------------
      LOOP:  cpu time   57.5291: real time   57.6811

 eigenvalue-minimisations  :  2856
 total energy-change (2. order) :-0.1846002E-04  (-0.5430801E-08)
 number of electron     247.9999994 magnetization 
 augmentation part        5.7687943 magnetization 

 Broyden mixing:
  rms(total) = 0.23006E-04    rms(broyden)= 0.23006E-04
  rms(prec ) = 0.27092E-04
  weight for this iteration     100.00

 eigenvalues of (default mixing * dielectric matrix)
  average eigenvalue GAMMA=   2.2997
  8.4523  7.2080  4.7556  3.1460  2.5321  2.4407  1.9526  1.9526  1.4265  1.4265
  1.1851  1.1851  0.9270  0.9270  0.9705  0.9705  0.9318  0.6841  0.6194

 Free energy of the ion-electron system (eV)
  ---------------------------------------------------
  alpha Z        PSCENC =        75.20389891
  Ewald energy   TEWEN  =    211803.64800034
  -Hartree energ DENC   =   -219326.85091815
  -exchange      EXHF   =         0.00000000
  -V(xc)+E(xc)   XCENC  =       850.58704108
  PAW double counting   =     25079.19789087   -25120.99169901
  entropy T*S    EENTRO =         0.00000000
  eigenvalues    EBANDS =     -3042.10684347
  atomic energy  EATOM  =      9123.59704331
  Solvation  Ediel_sol  =         0.00000000
  ---------------------------------------------------
  free energy    TOTEN  =      -557.71558611 eV

  energy without entropy =     -557.71558611  energy(sigma->0) =     -557.71558611


--------------------------------------------------------------------------------------------------------




--------------------------------------- Iteration      1(  25)  ---------------------------------------


    POTLOK:  cpu time    0.3393: real time    0.3423
    SETDIJ:  cpu time    0.0039: real time    0.0039
     EDDAV:  cpu time   51.7518: real time   51.8763
 BZINTS: Fermi energy: -3.478573;248.000000 electrons
         Band energy:***********;  BLOECHL correction:  0.000000
       DOS:  cpu time    0.0027: real time    0.0027
    CHARGE:  cpu time    3.6826: real time    3.6914
    MIXING:  cpu time    0.0179: real time    0.0180
    --------------------------------------------
      LOOP:  cpu time   55.7981: real time   55.9345

 eigenvalue-minimisations  :  2736
 total energy-change (2. order) :-0.1012581E-04  (-0.1762458E-08)
 number of electron     247.9999994 magnetization 
 augmentation part        5.7687942 magnetization 

 Broyden mixing:
  rms(total) = 0.15379E-04    rms(broyden)= 0.15379E-04
  rms(prec ) = 0.17096E-04
  weight for this iteration     100.00

 eigenvalues of (default mixing * dielectric matrix)
  average eigenvalue GAMMA=   2.3341
  8.8221  7.2790  5.2509  3.3631  2.5963  2.5963  2.0312  2.0312  1.6520  1.3204
  1.3204  1.2615  0.9280  0.9280  1.0631  1.0631  0.9360  0.9360  0.6841  0.6194

 Free energy of the ion-electron system (eV)
  ---------------------------------------------------
  alpha Z        PSCENC =        75.20389891
  Ewald energy   TEWEN  =    211803.64800034
  -Hartree energ DENC   =   -219326.88127692
  -exchange      EXHF   =         0.00000000
  -V(xc)+E(xc)   XCENC  =       850.58704975
  PAW double counting   =     25079.21286216   -25121.00664864
  entropy T*S    EENTRO =         0.00000000
  eigenvalues    EBANDS =     -3042.07652515
  atomic energy  EATOM  =      9123.59704331
  Solvation  Ediel_sol  =         0.00000000
  ---------------------------------------------------
  free energy    TOTEN  =      -557.71559624 eV

  energy without entropy =     -557.71559624  energy(sigma->0) =     -557.71559624


--------------------------------------------------------------------------------------------------------




--------------------------------------- Iteration      1(  26)  ---------------------------------------


    POTLOK:  cpu time    0.3403: real time    0.3463
    SETDIJ:  cpu time    0.0038: real time    0.0038
     EDDAV:  cpu time   51.6742: real time   51.7967
 BZINTS: Fermi energy: -3.478229;248.000000 electrons
         Band energy:***********;  BLOECHL correction:  0.000000
       DOS:  cpu time    0.0027: real time    0.0027
    CHARGE:  cpu time    3.6789: real time    3.6877
    MIXING:  cpu time    0.0181: real time    0.0181
    --------------------------------------------
      LOOP:  cpu time   55.7180: real time   55.8553

 eigenvalue-minimisations  :  2724
 total energy-change (2. order) :-0.4056688E-05  (-0.5088315E-09)
 number of electron     247.9999994 magnetization 
 augmentation part        5.7687936 magnetization 

 Broyden mixing:
  rms(total) = 0.75007E-05    rms(broyden)= 0.75006E-05
  rms(prec ) = 0.84342E-05
  weight for this iteration     100.00

 eigenvalues of (default mixing * dielectric matrix)
  average eigenvalue GAMMA=   2.3640
  8.9334  7.5618  5.5195  3.8102  2.7897  2.4842  2.0957  2.0957  1.9274  1.3996
  1.3996  1.2631  1.2631  0.6841  0.9275  0.9275  1.0939  0.9615  0.9615  0.9244
  0.6194

 Free energy of the ion-electron system (eV)
  ---------------------------------------------------
  alpha Z        PSCENC =        75.20389891
  Ewald energy   TEWEN  =    211803.64800034
  -Hartree energ DENC   =   -219326.89923531
  -exchange      EXHF   =         0.00000000
  -V(xc)+E(xc)   XCENC  =       850.58709392
  PAW double counting   =     25079.17461812   -25120.96841385
  entropy T*S    EENTRO =         0.00000000
  eigenvalues    EBANDS =     -3042.05860574
  atomic energy  EATOM  =      9123.59704331
  Solvation  Ediel_sol  =         0.00000000
[...]
   C          36.565          3.448         10.630          0.886
   C          35.300          3.428         10.444          0.870
   C          34.351          3.413         10.303          0.859
   C          35.254          3.427         10.437          0.870
   C          34.346          3.412         10.302          0.859
   C          34.193          3.410         10.279          0.857
   C          34.127          3.409         10.269          0.856
   C          34.395          3.413         10.309          0.859
   C          34.403          3.413         10.311          0.859
   C          34.403          3.413         10.311          0.859
   C          34.397          3.413         10.310          0.859
   C          35.342          3.429         10.450          0.871
   C          34.852          3.421         10.378          0.865
   C          34.611          3.417         10.342          0.862
   C          34.263          3.411         10.290          0.857
   C          35.257          3.427         10.438          0.870
   C          34.349          3.413         10.303          0.859
   C          34.195          3.410         10.279          0.857
   C          34.130          3.409         10.270          0.856
   C          34.224          3.410         10.284          0.857
   C          34.127          3.409         10.269          0.856
   C          34.132          3.409         10.270          0.856
   C          34.071          3.408         10.261          0.855
  Edisp (eV):   -7.29689
    FORVDW:  cpu time   91.5544: real time   91.7729

  FORCE on cell =-STRESS in cart. coord.  units (eV):
  Direction    XX          YY          ZZ          XY          YZ          ZX
  --------------------------------------------------------------------------------------
  Alpha Z    76.34746    76.34746    76.34746
  Ewald  220561.45079220551.38935************     8.75624   904.11104  1525.21723
  Hartree219668.20451219652.31818************    13.03037   819.52339  1380.57290
  E(xc)    -921.18967  -921.14179  -949.56465    -0.04089     0.35131     0.60055
  Local  ************************444281.54007   -23.60049 -1717.77247 -2895.78046
  n-local  -211.38123  -210.62170  -196.15631    -0.65369    -0.76885    -1.32451
  augment   -23.59840   -23.62080   -21.83223     0.01774    -0.00618    -0.00813
  Kinetic  3738.46859  3734.98167  4219.54147     2.89962    -5.29249    -9.03547
  Fock        0.00000     0.00000     0.00000     0.00000     0.00000     0.00000
  vdW        -7.64514    -7.60672    -4.16167    -0.03207    -0.03403    -0.05859
  -------------------------------------------------------------------------------------
  Total      -0.20991    -0.51445    -0.34548     0.37684     0.11173     0.18352
  in kB      -0.08131    -0.19928    -0.13383     0.14598     0.04328     0.07109
  external pressure =       -0.14 kB  Pullay stress =        0.00 kB


 VOLUME and BASIS-vectors are now :
 -----------------------------------------------------------------------------
  energy-cutoff  :      850.00
  volume of cell :     4135.99
      direct lattice vectors                 reciprocal lattice vectors
     9.777937446 -0.040258176  0.028975538     0.102031022 -0.058444566 -0.000201094
     4.860691242  8.485568734  0.029419213     0.000484688  0.117570229 -0.000210201
     0.148596923  0.088301621 49.731656900    -0.000059734 -0.000035498  0.020108158

  length of vectors
     9.778063254  9.779164666 49.731957294     0.117584596  0.117571416  0.020108278


 FORCES acting on ions
    electron-ion (+dipol)            ewald-force                    non-local-force                 convergence-correction
 -----------------------------------------------------------------------------------------------
   -.113E+00 -.153E+00 0.539E+03   0.271E+00 0.248E+00 -.540E+03   -.166E+00 -.910E-01 0.521E+00   -.265E-06 -.687E-07 0.713E-06
   -.670E+01 -.397E+01 0.509E+03   0.673E+01 0.398E+01 -.509E+03   -.185E-01 -.160E-01 -.653E+00   -.108E-05 -.727E-06 0.946E-06
   -.284E+01 -.163E+01 -.512E+03   0.277E+01 0.160E+01 0.512E+03   -.586E-02 -.221E-02 -.183E+00   -.236E-07 0.101E-07 -.125E-05
   -.292E+01 -.169E+01 -.512E+03   0.312E+01 0.180E+01 0.511E+03   -.118E+00 -.724E-01 0.107E+00   0.107E-05 0.464E-06 -.141E-05
   -.248E+01 -.795E+01 0.510E+03   0.246E+01 0.792E+01 -.510E+03   0.266E-02 0.160E-01 0.285E+00   0.722E-06 0.351E-06 0.115E-05
   -.708E+01 -.112E+01 0.502E+03   0.718E+01 0.117E+01 -.502E+03   -.754E-01 -.144E-01 -.187E+00   0.390E-06 0.762E-06 0.111E-05
   -.652E+01 -.628E+01 -.509E+03   0.652E+01 0.616E+01 0.510E+03   0.270E-02 0.799E-01 -.101E+00   0.629E-06 -.235E-05 -.134E-05
   -.235E+02 -.325E+00 -.485E+03   0.238E+02 0.113E+00 0.484E+03   -.235E+00 0.191E+00 0.281E+00   -.125E-05 -.328E-06 -.134E-05
   -.180E+01 -.142E+01 0.508E+03   0.169E+01 0.143E+01 -.508E+03   0.925E-01 -.737E-01 0.791E-01   0.387E-06 -.364E-06 0.112E-05
   -.132E+02 0.106E+02 0.501E+03   0.134E+02 -.105E+02 -.502E+03   -.107E+00 -.229E-01 0.584E+00   0.307E-06 0.852E-06 0.958E-06
   -.911E+01 0.179E+02 -.475E+03   0.927E+01 -.182E+02 0.475E+03   -.195E+00 0.270E+00 -.111E+00   -.724E-06 -.158E-05 -.906E-06
   -.195E+02 0.334E+02 -.449E+03   0.194E+02 -.337E+02 0.450E+03   0.167E+00 0.308E+00 -.303E+00   0.361E-06 -.143E-05 -.764E-06
   -.878E+00 0.627E+01 0.501E+03   0.709E+00 -.630E+01 -.501E+03   0.124E+00 -.322E-01 -.547E+00   -.136E-05 -.359E-06 0.813E-06
   -.687E+01 0.647E+01 0.518E+03   0.663E+01 -.644E+01 -.519E+03   0.252E+00 -.260E-02 0.324E+00   -.283E-05 0.156E-05 0.239E-06
   -.215E+01 0.936E+01 -.518E+03   0.224E+01 -.914E+01 0.519E+03   -.126E+00 -.214E+00 -.327E+00   0.251E-07 0.334E-05 -.190E-06
   -.496E+01 0.394E+01 -.501E+03   0.507E+01 -.381E+01 0.500E+03   -.307E-01 -.130E+00 0.549E+00   0.101E-05 0.972E-06 -.807E-06
   -.804E+01 0.166E+01 0.510E+03   0.800E+01 -.164E+01 -.510E+03   0.132E-01 -.476E-02 0.286E+00   0.570E-06 0.522E-06 0.117E-05
   -.455E+01 -.567E+01 0.502E+03   0.465E+01 0.572E+01 -.502E+03   -.471E-01 -.631E-01 -.190E+00   0.972E-06 -.194E-06 0.113E-05
   -.856E+01 -.249E+01 -.510E+03   0.844E+01 0.256E+01 0.510E+03   0.701E-01 -.339E-01 -.103E+00   -.181E-05 0.176E-05 -.136E-05
   -.119E+02 -.202E+02 -.485E+03   0.119E+02 0.205E+02 0.485E+03   0.532E-01 -.303E+00 0.279E+00   -.884E-06 -.105E-05 -.136E-05
   -.131E+02 -.765E+01 0.491E+03   0.132E+02 0.770E+01 -.491E+03   -.133E+00 -.751E-01 0.329E+00   0.400E-06 0.296E-06 0.115E-05
   -.224E+02 -.129E+02 0.415E+03   0.225E+02 0.130E+02 -.414E+03   -.829E-01 -.539E-01 -.866E+00   0.164E-05 0.793E-06 0.115E-05
   -.979E+02 -.567E+02 -.483E+03   0.102E+03 0.592E+02 0.485E+03   -.434E+01 -.250E+01 -.208E+01   -.917E-06 -.464E-06 -.144E-05
   -.374E+02 0.137E+02 0.412E+03   0.375E+02 -.141E+02 -.412E+03   -.104E+00 0.364E+00 -.280E+00   -.192E-06 -.177E-05 0.746E-06
   -.670E+02 0.617E+02 0.265E+03   0.689E+02 -.633E+02 -.266E+03   -.190E+01 0.166E+01 0.794E+00   0.415E-06 -.232E-05 0.704E-06
   -.196E+02 0.887E+02 -.264E+03   0.201E+02 -.912E+02 0.265E+03   -.480E+00 0.248E+01 -.785E+00   0.170E-05 -.152E-05 -.574E-06
   0.670E+01 0.393E+02 -.412E+03   -.642E+01 -.395E+02 0.411E+03   -.265E+00 0.270E+00 0.285E+00   0.143E-05 -.832E-06 -.794E-06
   -.190E+02 0.337E+02 0.450E+03   0.193E+02 -.337E+02 -.450E+03   -.348E+00 0.134E-01 0.312E+00   0.974E-06 -.799E-06 0.731E-06
   -.109E+02 0.167E+02 0.476E+03   0.111E+02 -.170E+02 -.476E+03   -.133E+00 0.300E+00 0.115E+00   0.160E-05 -.195E-06 0.953E-06
   -.251E+01 0.168E+02 -.501E+03   0.236E+01 -.169E+02 0.502E+03   0.724E-01 0.818E-01 -.586E+00   -.965E-06 0.323E-06 -.926E-06
   0.207E+01 0.951E+00 -.508E+03   -.201E+01 -.854E+00 0.509E+03   0.177E-01 -.119E+00 -.840E-01   0.163E-06 -.304E-06 -.111E-05
   -.207E+01 -.953E+00 0.508E+03   0.201E+01 0.857E+00 -.509E+03   -.176E-01 0.120E+00 0.841E-01   -.156E-06 0.567E-06 0.115E-05
   0.252E+01 -.168E+02 0.501E+03   -.237E+01 0.169E+02 -.502E+03   -.727E-01 -.819E-01 0.586E+00   0.929E-06 -.202E-06 0.100E-05
   0.109E+02 -.167E+02 -.476E+03   -.111E+02 0.170E+02 0.476E+03   0.133E+00 -.300E+00 -.115E+00   -.171E-05 0.258E-06 -.965E-06
   0.190E+02 -.337E+02 -.450E+03   -.193E+02 0.337E+02 0.450E+03   0.347E+00 -.132E-01 -.312E+00   -.109E-05 0.814E-06 -.746E-06
   -.670E+01 -.393E+02 0.412E+03   0.642E+01 0.395E+02 -.412E+03   0.265E+00 -.270E+00 -.284E+00   -.158E-05 0.795E-06 0.819E-06
   0.196E+02 -.887E+02 0.264E+03   -.201E+02 0.912E+02 -.265E+03   0.480E+00 -.248E+01 0.785E+00   -.191E-05 0.144E-05 0.580E-06
   0.670E+02 -.617E+02 -.265E+03   -.689E+02 0.633E+02 0.266E+03   0.190E+01 -.166E+01 -.794E+00   -.582E-06 0.220E-05 -.699E-06
   0.374E+02 -.137E+02 -.412E+03   -.375E+02 0.141E+02 0.412E+03   0.104E+00 -.364E+00 0.280E+00   0.759E-07 0.167E-05 -.723E-06
   0.979E+02 0.567E+02 0.483E+03   -.102E+03 -.592E+02 -.485E+03   0.434E+01 0.250E+01 0.208E+01   0.961E-06 0.503E-06 0.142E-05
   0.224E+02 0.129E+02 -.415E+03   -.225E+02 -.130E+02 0.414E+03   0.830E-01 0.537E-01 0.866E+00   -.166E-05 -.814E-06 -.113E-05
   0.131E+02 0.765E+01 -.491E+03   -.132E+02 -.770E+01 0.491E+03   0.133E+00 0.753E-01 -.329E+00   -.369E-06 -.270E-06 -.108E-05
   0.119E+02 0.202E+02 0.485E+03   -.119E+02 -.205E+02 -.485E+03   -.533E-01 0.302E+00 -.279E+00   0.791E-06 0.894E-06 0.136E-05
   0.856E+01 0.249E+01 0.510E+03   -.844E+01 -.256E+01 -.510E+03   -.703E-01 0.339E-01 0.103E+00   0.191E-05 -.159E-05 0.136E-05
   0.455E+01 0.567E+01 -.502E+03   -.464E+01 -.572E+01 0.502E+03   0.473E-01 0.627E-01 0.190E+00   -.921E-06 0.353E-06 -.107E-05
   0.804E+01 -.166E+01 -.510E+03   -.800E+01 0.165E+01 0.510E+03   -.137E-01 0.515E-02 -.286E+00   -.534E-06 -.344E-06 -.116E-05
   0.496E+01 -.394E+01 0.501E+03   -.507E+01 0.381E+01 -.501E+03   0.313E-01 0.130E+00 -.549E+00   -.104E-05 -.871E-06 0.850E-06
   0.216E+01 -.936E+01 0.518E+03   -.225E+01 0.914E+01 -.519E+03   0.126E+00 0.214E+00 0.327E+00   -.685E-07 -.339E-05 0.212E-06
   0.688E+01 -.646E+01 -.518E+03   -.664E+01 0.644E+01 0.519E+03   -.252E+00 0.236E-02 -.324E+00   0.278E-05 -.158E-05 -.213E-06
   0.876E+00 -.627E+01 -.501E+03   -.707E+00 0.629E+01 0.501E+03   -.124E+00 0.323E-01 0.547E+00   0.143E-05 0.274E-06 -.770E-06
   0.195E+02 -.334E+02 0.449E+03   -.194E+02 0.337E+02 -.450E+03   -.167E+00 -.308E+00 0.304E+00   -.403E-06 0.132E-05 0.748E-06
   0.911E+01 -.179E+02 0.475E+03   -.926E+01 0.182E+02 -.475E+03   0.195E+00 -.269E+00 0.111E+00   0.725E-06 0.146E-05 0.893E-06
   0.132E+02 -.106E+02 -.501E+03   -.134E+02 0.105E+02 0.502E+03   0.107E+00 0.229E-01 -.584E+00   -.218E-06 -.939E-06 -.881E-06
   0.180E+01 0.142E+01 -.508E+03   -.168E+01 -.143E+01 0.508E+03   -.923E-01 0.735E-01 -.791E-01   -.157E-06 0.241E-06 -.107E-05
   0.235E+02 0.326E+00 0.484E+03   -.238E+02 -.114E+00 -.484E+03   0.235E+00 -.192E+00 -.281E+00   0.108E-05 0.321E-06 0.134E-05
   0.652E+01 0.628E+01 0.509E+03   -.652E+01 -.615E+01 -.510E+03   -.305E-02 -.795E-01 0.101E+00   -.432E-06 0.236E-05 0.133E-05
   0.708E+01 0.112E+01 -.502E+03   -.718E+01 -.117E+01 0.502E+03   0.753E-01 0.145E-01 0.187E+00   -.213E-06 -.804E-06 -.105E-05
   0.247E+01 0.796E+01 -.510E+03   -.245E+01 -.792E+01 0.510E+03   -.270E-02 -.162E-01 -.286E+00   -.550E-06 -.403E-06 -.113E-05
   0.291E+01 0.169E+01 0.512E+03   -.311E+01 -.180E+01 -.511E+03   0.119E+00 0.721E-01 -.107E+00   -.975E-06 -.424E-06 0.142E-05
   0.284E+01 0.163E+01 0.512E+03   -.278E+01 -.160E+01 -.512E+03   0.517E-02 0.228E-02 0.183E+00   0.128E-06 0.556E-07 0.127E-05
   0.670E+01 0.397E+01 -.509E+03   -.673E+01 -.398E+01 0.509E+03   0.188E-01 0.159E-01 0.653E+00   0.111E-05 0.734E-06 -.922E-06
   0.112E+00 0.153E+00 -.539E+03   -.270E+00 -.248E+00 0.540E+03   0.166E+00 0.912E-01 -.522E+00   0.251E-06 0.591E-07 -.687E-06
 -----------------------------------------------------------------------------------------------
   -.492E-04 0.127E-03 -.460E-03   0.286E-13 -.116E-12 -.114E-11   -.534E-04 -.173E-03 0.473E-03   0.834E-07 0.456E-07 0.687E-06
 
 
 POSITION                                       TOTAL-FORCE (eV/Angst)
 -----------------------------------------------------------------------------------
     14.62025      8.43587     19.21787        -0.009545      0.002731      0.010497
      1.20042      0.69419     19.20003         0.014212     -0.003161      0.001642
      1.37446      0.79395     22.58608        -0.070708     -0.033114     -0.013526
      2.60653      1.50468     22.60068         0.080292      0.036865     -0.009984
     10.97070      2.06896     19.25470        -0.013450     -0.015037     -0.002307
      2.42428      2.81617     19.24126         0.018426      0.034094     -0.005192
      2.60069      2.91879     22.57713        -0.014797     -0.047204     -0.002702
      3.85044      3.62723     22.46352         0.037186      0.015935     -0.003129
     12.18419      4.19003     19.26510        -0.023205     -0.063759     -0.001896
      3.64004      4.93349     19.33228         0.034993      0.068483      0.003729
      3.80095      5.05575     22.42792        -0.025122     -0.014020      0.008415
      5.00014      5.77084     22.26641         0.020105     -0.001051     -0.002900
     13.39167      6.31306     19.30437        -0.044816     -0.056764      0.008751
      4.83880      7.05859     19.28306         0.007452      0.021462      0.005419
      5.01184      7.15800     22.54447        -0.029966      0.013618     -0.003821
      6.23523      7.86604     22.55258         0.078261      0.000808     -0.009641
      7.28236      8.46461     19.25409        -0.028824      0.008917     -0.003286
      3.65005      0.69110     19.24074         0.046020     -0.012122     -0.005800
      3.82757      0.79096     22.57785        -0.057381      0.019799     -0.002590
      5.06629      1.51778     22.46479         0.037631      0.018218     -0.003410
      3.65894      2.11211     19.31371        -0.049438     -0.021349     -0.020583
      4.87735      2.81483     19.59208         0.051934      0.026096      0.000893
      5.05070      2.91363     22.41628        -0.013680     -0.002958      0.004903
      4.84797      4.24008     19.66579        -0.012917     -0.022445     -0.008906
      5.95537      5.04293     20.15907        -0.006256      0.000586     -0.009678
      6.19801      5.18488     21.66564         0.001315      0.004982      0.012475
      7.44660      5.74023     22.16056         0.028150     -0.005368      0.009285
      6.04583      6.37420     19.55927        -0.013092     -0.013354      0.001937
      7.26442      7.05522     19.39826         0.028915      0.003529     -0.006839
      7.45115      7.13239     22.49564        -0.082988      0.009078     -0.002781
      8.67739      7.84786     22.59286         0.073701     -0.018183      0.002007
      9.72576      8.45254     19.26470        -0.073515      0.019048     -0.001968
      6.09133      0.68245     19.33244         0.081941     -0.009312      0.002793
      6.27804      0.75963     22.42987        -0.027943     -0.004279      0.006846
      7.49665      1.44063     22.26880         0.012350      0.013563     -0.001987
      6.09587      2.07461     19.66749        -0.028070      0.005579     -0.009084
      7.34445      2.62996     20.16241        -0.001418     -0.004918     -0.012310
      7.58711      2.77190     21.66897         0.006308     -0.000569      0.009919
      8.69451      3.57475     22.16225         0.012808      0.022663      0.009054
      8.49176      4.90120     19.41182         0.013341      0.003572     -0.004900
      8.66512      5.00001     22.23599        -0.051813     -0.026431     -0.000751
      9.88353      5.70272     22.51444         0.049151      0.021955      0.020605
      8.47618      6.29706     19.36334        -0.037985     -0.018299      0.003398
      9.71491      7.02387     19.25031         0.056626     -0.019750      0.002534
      9.89241      7.12375     22.58744        -0.045367      0.011176      0.005716
     11.12081      7.83579     22.60353         0.027787     -0.007800      0.003061
     12.16792      8.43437     19.30491        -0.076748     -0.000652      0.009658
      8.53064      0.65683     19.28360         0.028909     -0.013527      0.003934
      8.70367      0.75625     22.54501        -0.007516     -0.022260     -0.005306
      9.92873      1.46152     22.55268         0.045985      0.056784     -0.008664
      8.54233      2.04400     19.56165        -0.019797      0.000623      0.002839
      9.74152      2.75908     19.40022         0.024617      0.015037     -0.008383
      9.90243      2.88134     22.49580        -0.035333     -0.068541     -0.003680
     11.13621      3.58455     22.59203         0.023923      0.063141      0.001908
      9.69202      4.18762     19.36462        -0.036555     -0.017057      0.003058
     10.94178      4.89603     19.25104         0.013972      0.048272      0.002605
     11.11818      4.99866     22.58693        -0.018265     -0.033774      0.005119
     12.34971      5.70562     22.60248         0.013665      0.014545      0.002106
     10.93593      6.31016     19.22748        -0.078722     -0.037520      0.009896
     12.16803      7.02088     19.24203         0.068971      0.033099      0.013454
     12.34205      7.12065     22.62817        -0.013473      0.002788     -0.001823
     13.56084      7.82428     22.66864         0.009759     -0.002464     -0.010626
 -----------------------------------------------------------------------------------
    total drift:                               -0.000103     -0.000047      0.000014


--------------------------------------------------------------------------------------------------------



  FREE ENERGIE OF THE ION-ELECTRON SYSTEM (eV)
  ---------------------------------------------------
  free  energy   TOTEN  =      -565.05565818 eV

  energy  without entropy=     -565.05565818  energy(sigma->0) =     -565.05565818
 
 d Force = 0.1612909E-02[-0.199E-02, 0.521E-02]  d Energy = 0.2974081E-02-0.136E-02
 d Force =-0.2326644E+00[-0.245E+00,-0.220E+00]  d Ewald  = 0.2004644E+03-0.201E+03


--------------------------------------------------------------------------------------------------------


    POTLOK:  cpu time    0.5560: real time    0.5589


--------------------------------------------------------------------------------------------------------


 Quasi-Newton relaxation of ions (Broydens 2nd method)
  g(Force)  = 0.740E-02   g(Stress)= 0.626E-03

 retain information from N=  3 steps
 eigenvalues of (default step * inverse Hessian matrix)
  average eigenvalue of G=   2.7352
 eigenvalue spectrum of G is  0.5317  4.9054  2.7686


--------------------------------------------------------------------------------------------------------


  
 reached required accuracy - stopping structural energy minimisation
     LOOP+:  cpu time 1256.0792: real time 1259.3133
    4ORBIT:  cpu time    0.0000: real time    0.0000

 total amount of memory used by VASP MPI-rank0   343151. kBytes
=======================================================================

   base      :      30000. kBytes
   nonl-proj :      53997. kBytes
   fftplans  :      41100. kBytes
   grid      :      57575. kBytes
   one-center:         24. kBytes
   wavefun   :     160455. kBytes
 
  
  
 General timing and accounting informations for this job:
 ========================================================
  
                  Total CPU time used (sec):    27019.793
                            User time (sec):    26159.509
                          System time (sec):      860.285
                         Elapsed time (sec):    27111.270
  
                   Maximum memory used (kb):      451220.
                   Average memory used (kb):           0.
  
                          Minor page faults:     22005421
                          Major page faults:           23
                 Voluntary context switches:        10007
