<?xml version="1.0" encoding="ISO-8859-1"?>
<modeling>
 <generator>
  <i name="program" type="string">vasp </i>
  <i name="version" type="string">5.4.4.18Apr17-6-g9f103f2a35  </i>
  <i name="subversion" type="string">(build Jan 12 2023 11:40:15) complex            parallel </i>
  <i name="platform" type="string">LinuxIFC </i>
  <i name="date" type="string">2023 12 04 </i>
  <i name="time" type="string">09:30:00 </i>
 </generator>
 <incar>
  <i type="int" name="ISTART">     0</i>
  <i type="string" name="PREC">accurate   (precision level)</i>
  <i type="string" name="ALGO"> Normal</i>
  <i type="int" name="ISPIN">     1</i>
  <i type="int" name="ICHARG">     2</i>
  <i type="int" name="NELM">   150</i>
  <i type="int" name="IBRION">     1</i>
  <i name="EDIFF">      0.00000010</i>
  <i name="EDIFFG">      0.01000000</i>
  <i type="int" name="NSW">  1000</i>
  <i type="int" name="ISIF">     3</i>
  <i name="ENCUT">    850.00000000</i>
  <i type="logical" name="LREAL"> F  </i>
  <i type="int" name="ISMEAR">    -5</i>
  <i name="SIGMA">      0.02000000</i>
  <i name="KSPACING">      0.15000000</i>
  <i type="logical" name="KGAMMA"> T  </i>
  <i type="logical" name="LWAVE"> F  </i>
  <i type="logical" name="LCHARG"> F  </i>
  <v type="int" name="KPOINT_BSE">    -1     0     0     0</v>
  <i type="int" name="NELM">   150</i>
 </incar>
 <structure name="primitive_cell" >
  <crystal>
   <varray name="basis" >
    <v>       9.84672000       0.00000000       0.00000000 </v>
    <v>       4.93000000       8.52848000       0.00000000 </v>
    <v>       0.00000000       0.00000000      50.00000000 </v>
   </varray>
   <i name="volume">   4198.87772928 </i>
   <varray name="rec_basis" >
    <v>       0.10155666      -0.05870616       0.00000000 </v>
    <v>       0.00000000       0.11725419       0.00000000 </v>
    <v>       0.00000000       0.00000000       0.02000000 </v>
   </varray>
  </crystal>
  <varray name="positions" >
   <v>      -0.00517733      -0.00513102       0.38514455 </v>
   <v>       0.07791597       0.07805122       0.38594119 </v>
   <v>      -0.17206069       0.07756090       0.38706663 </v>
   <v>       0.07756562      -0.17200474       0.38705342 </v>
   <v>       0.24096234      -0.25197466       0.39260747 </v>
   <v>      -0.25206126       0.24090409       0.39266137 </v>
   <v>       0.24442413      -0.00540556       0.38644880 </v>
   <v>      -0.00556940       0.24454251       0.38646416 </v>
   <v>      -0.25531628      -0.00627602       0.38703449 </v>
   <v>      -0.00619718      -0.25534748       0.38702507 </v>
   <v>       0.32518372      -0.17111708       0.38932030 </v>
   <v>      -0.17131981       0.32528430       0.38936382 </v>
   <v>      -0.17244901      -0.17249599       0.38584997 </v>
   <v>       0.08866489      -0.16099867       0.45293243 </v>
   <v>      -0.16096012       0.08856840       0.45294591 </v>
   <v>      -0.07821543      -0.07830251       0.45485734 </v>
   <v>       0.17192410      -0.07716099       0.45296478 </v>
   <v>      -0.07719460       0.17191219       0.45297398 </v>
   <v>      -0.40791927       0.30747897       0.40495256 </v>
   <v>       0.30794401      -0.40799296       0.40486762 </v>
   <v>       0.32806509       0.07878364       0.38670863 </v>
   <v>      -0.42227369       0.07897963       0.38835686 </v>
   <v>       0.07868843       0.32814403       0.38671185 </v>
   <v>       0.07908503      -0.42228852       0.38834608 </v>
   <v>       0.08905428       0.08905776       0.45415060 </v>
   <v>       0.16866532      -0.32433946       0.44733610 </v>
   <v>      -0.32435499       0.16853944       0.44739034 </v>
   <v>       0.49334881      -0.25852524       0.38853509 </v>
   <v>      -0.25873084       0.49343418       0.38856494 </v>
   <v>       0.49677967       0.24224155       0.39512196 </v>
   <v>       0.24247702       0.49671398       0.39507599 </v>
   <v>       0.24581560       0.24586853       0.38816020 </v>
   <v>      -0.25653988      -0.25653585       0.38570328 </v>
   <v>       0.32452263      -0.39091490       0.43504314 </v>
   <v>      -0.39133154       0.32455353       0.43512740 </v>
   <v>      -0.16131053      -0.16148629       0.45406337 </v>
   <v>       0.33887868      -0.16241811       0.45164126 </v>
   <v>      -0.16247809       0.33885226       0.45165145 </v>
   <v>       0.17314716       0.17309796       0.45429847 </v>
   <v>       0.41982599      -0.32567789       0.44487422 </v>
   <v>      -0.32586629       0.41984942       0.44491900 </v>
   <v>      -0.40857805       0.08768311       0.45068102 </v>
   <v>       0.08792401      -0.40871922       0.45063776 </v>
   <v>       0.49436459      -0.00526430       0.38649697 </v>
   <v>      -0.00528485       0.49440665       0.38650547 </v>
   <v>      -0.32781999      -0.07802718       0.45355515 </v>
   <v>      -0.07782504      -0.32797738       0.45354018 </v>
   <v>      -0.42286701      -0.17300448       0.38620679 </v>
   <v>      -0.17309640      -0.42282557       0.38622307 </v>
   <v>      -0.42223668      -0.42193378       0.38950102 </v>
   <v>       0.42224107      -0.07817306       0.45350335 </v>
   <v>      -0.07810902       0.42215723       0.45349526 </v>
   <v>       0.33947215       0.08956684       0.45379489 </v>
   <v>       0.08970095       0.33938871       0.45377929 </v>
   <v>       0.32901794       0.32899769       0.39364306 </v>
   <v>       0.42325477       0.17508955       0.45146632 </v>
   <v>       0.17533582       0.42312754       0.45143695 </v>
   <v>      -0.41241135      -0.41243445       0.44635357 </v>
   <v>      -0.41145800      -0.16222049       0.45329344 </v>
   <v>      -0.16208425      -0.41157769       0.45329068 </v>
   <v>      -0.32921141      -0.32930475       0.45184018 </v>
   <v>       0.33883809       0.33849742       0.45049951 </v>
  </varray>
 </structure>
 <varray name="primitive_index" >
  <v type="int" >        1 </v>
  <v type="int" >        2 </v>
  <v type="int" >       48 </v>
  <v type="int" >       14 </v>
  <v type="int" >       28 </v>
  <v type="int" >       51 </v>
  <v type="int" >       17 </v>
  <v type="int" >        5 </v>
  <v type="int" >       47 </v>
  <v type="int" >       13 </v>
  <v type="int" >       29 </v>
  <v type="int" >       52 </v>
  <v type="int" >       60 </v>
  <v type="int" >       15 </v>
  <v type="int" >       49 </v>
  <v type="int" >       62 </v>
  <v type="int" >       16 </v>
  <v type="int" >       50 </v>
  <v type="int" >       37 </v>
  <v type="int" >       25 </v>
  <v type="int" >       18 </v>
  <v type="int" >       33 </v>
  <v type="int" >        6 </v>
  <v type="int" >       10 </v>
  <v type="int" >        3 </v>
  <v type="int" >       12 </v>
  <v type="int" >       35 </v>
  <v type="int" >       43 </v>
  <v type="int" >       55 </v>
  <v type="int" >       36 </v>
  <v type="int" >       24 </v>
  <v type="int" >       21 </v>
  <v type="int" >       59 </v>
  <v type="int" >       26 </v>
  <v type="int" >       38 </v>
  <v type="int" >       61 </v>
  <v type="int" >       30 </v>
  <v type="int" >       53 </v>
  <v type="int" >        4 </v>
  <v type="int" >       27 </v>
  <v type="int" >       39 </v>
  <v type="int" >       34 </v>
  <v type="int" >       11 </v>
  <v type="int" >       32 </v>
  <v type="int" >        9 </v>
  <v type="int" >       46 </v>
  <v type="int" >       58 </v>
  <v type="int" >       44 </v>
  <v type="int" >       56 </v>
  <v type="int" >       40 </v>
  <v type="int" >       31 </v>
  <v type="int" >       54 </v>
  <v type="int" >       19 </v>
  <v type="int" >        7 </v>
  <v type="int" >       22 </v>
  <v type="int" >       20 </v>
  <v type="int" >        8 </v>
  <v type="int" >       41 </v>
  <v type="int" >       45 </v>
  <v type="int" >       57 </v>
  <v type="int" >       42 </v>
  <v type="int" >       23 </v>
 </varray>
 <kpoints>
  <generation param="Gamma">
   <v type="int" name="divisions">       5        5        1 </v>
   <v name="usershift">      0.00000000       0.00000000       0.00000000 </v>
   <v name="genvec1">      0.20000000      -0.00000000       0.00000000 </v>
   <v name="genvec2">      0.00000000       0.20000000       0.00000000 </v>
   <v name="genvec3">      0.00000000       0.00000000       1.00000000 </v>
   <v name="shift">      0.00000000       0.00000000       0.00000000 </v>
  </generation>
  <varray name="kpointlist" >
   <v>       0.00000000       0.00000000       0.00000000 </v>
   <v>       0.20000000       0.00000000       0.00000000 </v>
   <v>       0.40000000       0.00000000       0.00000000 </v>
   <v>       0.00000000       0.20000000       0.00000000 </v>
   <v>       0.20000000       0.20000000       0.00000000 </v>
   <v>       0.40000000       0.20000000       0.00000000 </v>
   <v>      -0.40000000       0.20000000       0.00000000 </v>
   <v>      -0.20000000       0.20000000       0.00000000 </v>
   <v>       0.00000000       0.40000000       0.00000000 </v>
   <v>       0.20000000       0.40000000       0.00000000 </v>
   <v>       0.40000000       0.40000000       0.00000000 </v>
   <v>      -0.40000000       0.40000000       0.00000000 </v>
   <v>      -0.20000000       0.40000000       0.00000000 </v>
  </varray>
  <varray name="weights" >
   <v>       0.04000000 </v>
   <v>       0.08000000 </v>
   <v>       0.08000000 </v>
   <v>       0.08000000 </v>
   <v>       0.08000000 </v>
   <v>       0.08000000 </v>
   <v>       0.08000000 </v>
   <v>       0.08000000 </v>
   <v>       0.08000000 </v>
   <v>       0.08000000 </v>
   <v>       0.08000000 </v>
   <v>       0.08000000 </v>
   <v>       0.08000000 </v>
  </varray>
  <varray name="tetrahedronlist"  type="int" >
   <v type="int" >        2        1        1        2        5 </v>
   <v type="int" >        2        1        1        4        5 </v>
   <v type="int" >        2        1        4        4        5 </v>
   <v type="int" >        2        1        2        2        5 </v>
   <v type="int" >        2        1        2        5        5 </v>
   <v type="int" >        2        1        4        5        5 </v>
   <v type="int" >        2        2        2        3        6 </v>
   <v type="int" >        2        2        2        5        6 </v>
   <v type="int" >        2        2        5        5        6 </v>
   <v type="int" >        2        2        3        3        6 </v>
   <v type="int" >        2        2        3        6        6 </v>
   <v type="int" >        2        2        5        6        6 </v>
   <v type="int" >        4        3        3        3        7 </v>
   <v type="int" >        2        3        3        6        7 </v>
   <v type="int" >        2        3        6        6        7 </v>
   <v type="int" >        2        3        3        7        7 </v>
   <v type="int" >        2        3        6        7        7 </v>
   <v type="int" >        2        2        3        3        8 </v>
   <v type="int" >        2        3        3        7        8 </v>
   <v type="int" >        2        3        7        7        8 </v>
   <v type="int" >        2        2        2        3        8 </v>
   <v type="int" >        2        2        3        8        8 </v>
   <v type="int" >        2        3        7        8        8 </v>
   <v type="int" >        2        1        2        2        4 </v>
   <v type="int" >        2        2        2        4        8 </v>
   <v type="int" >        2        2        4        8        8 </v>
   <v type="int" >        2        1        1        2        4 </v>
   <v type="int" >        2        1        2        4        4 </v>
   <v type="int" >        2        2        4        4        8 </v>
   <v type="int" >        2        4        4        5       10 </v>
   <v type="int" >        2        4        4        9       10 </v>
   <v type="int" >        2        4        9        9       10 </v>
   <v type="int" >        2        4        5        5       10 </v>
   <v type="int" >        2        4        5       10       10 </v>
   <v type="int" >        2        4        9       10       10 </v>
   <v type="int" >        2        5        5        6       11 </v>
   <v type="int" >        2        5        5       10       11 </v>
   <v type="int" >        2        5       10       10       11 </v>
   <v type="int" >        2        5        6        6       11 </v>
   <v type="int" >        2        5        6       11       11 </v>
   <v type="int" >        2        5       10       11       11 </v>
   <v type="int" >        2        6        6        7       12 </v>
   <v type="int" >        2        6        6       11       12 </v>
   <v type="int" >        2        6       11       11       12 </v>
   <v type="int" >        2        6        7        7       12 </v>
   <v type="int" >        2        6        7       12       12 </v>
   <v type="int" >        2        6       11       12       12 </v>
   <v type="int" >        2        7        7        8       13 </v>
   <v type="int" >        2        7        7       12       13 </v>
   <v type="int" >        2        7       12       12       13 </v>
   <v type="int" >        2        7        8        8       13 </v>
   <v type="int" >        2        7        8       13       13 </v>
   <v type="int" >        2        7       12       13       13 </v>
   <v type="int" >        2        4        8        8        9 </v>
   <v type="int" >        2        8        8        9       13 </v>
   <v type="int" >        2        8        9       13       13 </v>
   <v type="int" >        2        4        4        8        9 </v>
   <v type="int" >        2        4        8        9        9 </v>
   <v type="int" >        2        8        9        9       13 </v>
   <v type="int" >        2        9        9       10       13 </v>
   <v type="int" >        4        9        9        9       13 </v>
   <v type="int" >        2        9       10       10       13 </v>
   <v type="int" >        2        9       10       13       13 </v>
   <v type="int" >        2        9        9       13       13 </v>
   <v type="int" >        2       10       10       11       12 </v>
   <v type="int" >        2       10       10       12       13 </v>
   <v type="int" >        2       10       12       13       13 </v>
   <v type="int" >        2       10       11       11       12 </v>
   <v type="int" >        2       10       11       12       12 </v>
   <v type="int" >        2       10       12       12       13 </v>
   <v type="int" >        4       11       11       11       12 </v>
   <v type="int" >        2       11       11       12       12 </v>
  </varray>
  <i name="volumeweight">      0.00666667 </i>
 </kpoints>
 <parameters>
  <separator name="general" >
   <i type="string" name="SYSTEM">unknown system</i>
   <i type="logical" name="LCOMPAT"> F  </i>
  </separator>
  <separator name="electronic" >
   <i type="string" name="PREC">accura</i>
   <i name="ENMAX">    850.00000000</i>
   <i name="ENAUG">    644.87300000</i>
   <i name="EDIFF">      0.00000010</i>
   <i type="int" name="IALGO">    38</i>
   <i type="int" name="IWAVPR">    11</i>
   <i type="int" name="NBANDS">   156</i>
   <i name="NELECT">    248.00000000</i>
   <i type="int" name="TURBO">     0</i>
   <i type="int" name="IRESTART">     0</i>
   <i type="int" name="NREBOOT">     0</i>
   <i type="int" name="NMIN">     0</i>
   <i name="EREF">      0.00000000</i>
   <separator name="electronic smearing" >
    <i type="int" name="ISMEAR">    -5</i>
    <i name="SIGMA">      0.02000000</i>
    <i name="KSPACING">      0.15000000</i>
    <i type="logical" name="KGAMMA"> T  </i>
   </separator>
   <separator name="electronic projectors" >
    <i type="logical" name="LREAL"> F  </i>
    <v name="ROPT">      0.00000000</v>
    <i type="int" name="LMAXPAW">  -100</i>
    <i type="int" name="LMAXMIX">     2</i>
    <i type="logical" name="NLSPLINE"> F  </i>
   </separator>
   <separator name="electronic startup" >
    <i type="int" name="ISTART">     0</i>
    <i type="int" name="ICHARG">     2</i>
    <i type="int" name="INIWAV">     1</i>
   </separator>
   <separator name="electronic spin" >
    <i type="int" name="ISPIN">     1</i>
    <i type="logical" name="LNONCOLLINEAR"> F  </i>
    <v name="MAGMOM">      1.00000000      1.00000000      1.00000000      1.00000000      1.00000000      1.00000000      1.00000000      1.00000000      1.00000000      1.00000000      1.00000000      1.00000000      1.00000000      1.00000000      1.00000000      1.00000000      1.00000000      1.00000000      1.00000000      1.00000000
      1.00000000      1.00000000      1.00000000      1.00000000      1.00000000      1.00000000      1.00000000      1.00000000      1.00000000      1.00000000      1.00000000      1.00000000      1.00000000      1.00000000      1.00000000      1.00000000      1.00000000      1.00000000      1.00000000      1.00000000
      1.00000000      1.00000000      1.00000000      1.00000000      1.00000000      1.00000000      1.00000000      1.00000000      1.00000000      1.00000000      1.00000000      1.00000000      1.00000000      1.00000000      1.00000000      1.00000000      1.00000000      1.00000000      1.00000000      1.00000000
      1.00000000      1.00000000</v>
    <i name="NUPDOWN">     -1.00000000</i>
    <i type="logical" name="LSORBIT"> F  </i>
    <v name="SAXIS">      0.00000000      0.00000000      1.00000000</v>
    <i type="logical" name="LSPIRAL"> F  </i>
    <v name="QSPIRAL">      0.00000000      0.00000000      0.00000000</v>
    <i type="logical" name="LZEROZ"> F  </i>
   </separator>
   <separator name="electronic exchange-correlation" >
    <i type="logical" name="LASPH"> F  </i>
    <i type="logical" name="LMETAGGA"> F  </i>
   </separator>
   <separator name="electronic convergence" >
    <i type="int" name="NELM">   150</i>
    <i type="int" name="NELMDL">    -5</i>
    <i type="int" name="NELMIN">     2</i>
    <i name="ENINI">    850.00000000</i>
    <separator name="electronic convergence detail" >
     <i type="logical" name="LDIAG"> T  </i>
     <i type="logical" name="LSUBROT"> F  </i>
     <i name="WEIMIN">      0.00100000</i>
     <i name="EBREAK">      0.00000000</i>
     <i name="DEPER">      0.30000000</i>
     <i type="int" name="NRMM">     4</i>
     <i name="TIME">      0.40000000</i>
    </separator>
   </separator>
   <separator name="electronic mixer" >
    <i name="AMIX">      0.40000000</i>
    <i name="BMIX">      1.00000000</i>
    <i name="AMIN">      0.10000000</i>
    <i name="AMIX_MAG">      1.60000000</i>
    <i name="BMIX_MAG">      1.00000000</i>
    <separator name="electronic mixer details" >
     <i type="int" name="IMIX">     4</i>
     <i type="logical" name="MIXFIRST"> F  </i>
     <i type="int" name="MAXMIX">   -45</i>
     <i name="WC">    100.00000000</i>
     <i type="int" name="INIMIX">     1</i>
     <i type="int" name="MIXPRE">     1</i>
     <i type="int" name="MREMOVE">     5</i>
    </separator>
   </separator>
   <separator name="electronic dipolcorrection" >
    <i type="logical" name="LDIPOL"> F  </i>
    <i type="logical" name="LMONO"> F  </i>
    <i type="int" name="IDIPOL">     0</i>
    <i name="EPSILON">      1.00000000</i>
    <v name="DIPOL">   -100.00000000   -100.00000000   -100.00000000</v>
    <i name="EFIELD">      0.00000000</i>
   </separator>
  </separator>
  <separator name="grids" >
   <i type="int" name="NGX">    96</i>
   <i type="int" name="NGY">    96</i>
   <i type="int" name="NGZ">   480</i>
   <i type="int" name="NGXF">   192</i>
   <i type="int" name="NGYF">   192</i>
   <i type="int" name="NGZF">   960</i>
   <i type="logical" name="ADDGRID"> F  </i>
  </separator>
  <separator name="ionic" >
   <i type="int" name="NSW">  1000</i>
   <i type="int" name="IBRION">     1</i>
   <i type="int" name="MDALGO">     0</i>
   <i type="int" name="ISIF">     3</i>
   <i name="PSTRESS">      0.00000000</i>
   <i name="EDIFFG">      0.01000000</i>
   <i type="int" name="NFREE">     0</i>
   <i name="POTIM">      0.50000000</i>
   <i name="SMASS">     -3.00000000</i>
   <i name="SCALEE">      1.00000000</i>
  </separator>
  <separator name="ionic md" >
   <i name="TEBEG">      0.00010000</i>
   <i name="TEEND">      0.00010000</i>
   <i type="int" name="NBLOCK">     1</i>
   <i type="int" name="KBLOCK">  1000</i>
   <i type="int" name="NPACO">   256</i>
   <i name="APACO">     16.00000000</i>
  </separator>
  <separator name="symmetry" >
   <i type="int" name="ISYM">     2</i>
   <i name="SYMPREC">      0.00001000</i>
  </separator>
  <separator name="dos" >
   <i type="int" name="LORBIT">     0</i>
   <v name="RWIGS">     -1.00000000</v>
   <i type="int" name="NEDOS">   301</i>
   <i name="EMIN">     10.00000000</i>
   <i name="EMAX">    -10.00000000</i>
   <i name="EFERMI">      0.00000000</i>
  </separator>
  <separator name="writing" >
   <i type="int" name="NWRITE">     2</i>
   <i type="logical" name="LWAVE"> F  </i>
   <i type="logical" name="LDOWNSAMPLE"> F  </i>
   <i type="logical" name="LCHARG"> F  </i>
   <i type="logical" name="LPARD"> F  </i>
   <i type="logical" name="LVTOT"> F  </i>
   <i type="logical" name="LVHAR"> F  </i>
   <i type="logical" name="LELF"> F  </i>
   <i type="logical" name="LOPTICS"> F  </i>
   <v name="STM">      0.00000000      0.00000000      0.00000000      0.00000000      0.00000000      0.00000000      0.00000000</v>
  </separator>
  <separator name="performance" >
   <i type="int" name="NPAR">     6</i>
   <i type="int" name="NSIM">     4</i>
   <i type="int" name="NBLK">    -1</i>
   <i type="logical" name="LPLANE"> T  </i>
   <i type="logical" name="LSCALAPACK"> F  </i>
   <i type="logical" name="LSCAAWARE"> F  </i>
   <i type="logical" name="LSCALU"> F  </i>
   <i type="logical" name="LASYNC"> F  </i>
   <i type="logical" name="LORBITALREAL"> F  </i>
  </separator>
  <separator name="miscellaneous" >
   <i type="int" name="IDIOT">     3</i>
   <i type="int" name="ISPECIAL">     0</i>
   <i type="logical" name="LMUSIC"> F  </i>
   <v name="POMASS">     12.01100000</v>
   <v name="DARWINR">      0.00000000</v>
   <v name="DARWINV">      1.00000000</v>
   <i type="logical" name="LCORR"> T  </i>
  </separator>
  <i type="logical" name="GGA_COMPAT"> T  </i>
  <i type="logical" name="LBERRY"> F  </i>
  <i type="int" name="ICORELEVEL">     0</i>
  <i type="logical" name="LDAU"> F  </i>
  <i type="int" name="I_CONSTRAINED_M">     0</i>
  <separator name="electronic exchange-correlation" >
   <i type="string" name="GGA">--</i>
   <i type="int" name="VOSKOWN">     0</i>
   <i type="logical" name="LHFCALC"> F  </i>
   <i type="string" name="PRECFOCK"></i>
   <i type="logical" name="LSYMGRAD"> F  </i>
   <i type="logical" name="LHFONE"> F  </i>
   <i type="logical" name="LRHFCALC"> F  </i>
   <i type="logical" name="LTHOMAS"> F  </i>
   <i type="logical" name="LMODELHF"> F  </i>
   <i name="ENCUT4O">     -1.00000000</i>
   <i type="int" name="EXXOEP">     0</i>
   <i type="int" name="FOURORBIT">     0</i>
   <i name="AEXX">      0.00000000</i>
   <i name="HFALPHA">      0.00000000</i>
   <i name="MCALPHA">      0.00000000</i>
   <i name="ALDAX">      1.00000000</i>
   <i name="AGGAX">      1.00000000</i>
   <i name="ALDAC">      1.00000000</i>
   <i name="AGGAC">      1.00000000</i>
   <i type="int" name="NKREDX">     1</i>
   <i type="int" name="NKREDY">     1</i>
   <i type="int" name="NKREDZ">     1</i>
   <i type="logical" name="SHIFTRED"> F  </i>
   <i type="logical" name="ODDONLY"> F  </i>
   <i type="logical" name="EVENONLY"> F  </i>
   <i type="int" name="LMAXFOCK">     0</i>
   <i type="int" name="NMAXFOCKAE">     0</i>
   <i type="logical" name="LFOCKAEDFT"> F  </i>
   <i name="HFSCREEN">      0.00000000</i>
   <i name="HFSCREENC">      0.00000000</i>
   <i type="int" name="NBANDSGWLOW">     0</i>
  </separator>
  <separator name="vdW DFT" >
   <i type="logical" name="LUSE_VDW"> F  </i>
   <i name="Zab_VDW">     -0.84910000</i>
   <i name="PARAM1">      0.12340000</i>
   <i name="PARAM2">      1.00000000</i>
   <i name="PARAM3">      0.00000000</i>
  </separator>
  <separator name="model GW" >
   <i type="int" name="MODEL_GW">     0</i>
   <i name="MODEL_EPS0">     40.63430061</i>
   <i name="MODEL_ALPHA">      1.00000000</i>
  </separator>
  <separator name="linear response parameters" >
   <i type="logical" name="LEPSILON"> F  </i>
   <i type="logical" name="LRPA"> F  </i>
   <i type="logical" name="LNABLA"> F  </i>
   <i type="logical" name="LVEL"> F  </i>
   <i type="int" name="KINTER">     0</i>
   <i name="CSHIFT">      0.10000000</i>
   <i name="OMEGAMAX">     -1.00000000</i>
   <i name="DEG_THRESHOLD">      0.00200000</i>
   <i name="RTIME">     -0.10000000</i>
   <i name="WPLASMAI">      0.00000000</i>
   <v name="DFIELD">      0.00000000      0.00000000      0.00000000</v>
   <v name="WPLASMA">      0.00000000      0.00000000      0.00000000      0.00000000      0.00000000      0.00000000      0.00000000      0.00000000      0.00000000</v>
  </separator>
  <separator name="orbital magnetization" >
   <i type="logical" name="NUCIND"> F  </i>
   <v name="MAGPOS">      0.00000000      0.00000000      0.00000000</v>
   <i type="logical" name="LNICSALL"> T  </i>
   <i type="logical" name="ORBITALMAG"> F  </i>
   <i type="logical" name="LMAGBLOCH"> F  </i>
   <i type="logical" name="LCHIMAG"> F  </i>
   <i type="logical" name="LGAUGE"> T  </i>
   <i type="int" name="MAGATOM">     0</i>
   <v name="MAGDIPOL">      0.00000000      0.00000000      0.00000000</v>
   <v name="AVECCONST">      0.00000000      0.00000000      0.00000000</v>
  </separator>
  <separator name="response functions" >
   <i type="logical" name="LADDER"> F  </i>
   <i type="logical" name="LRPAFORCE"> F  </i>
   <i type="logical" name="LFXC"> F  </i>
   <i type="logical" name="LHARTREE"> T  </i>
   <i type="int" name="IBSE">     0</i>
   <v type="int" name="KPOINT">    -1     0     0     0</v>
   <i type="logical" name="LTCTE"> F  </i>
   <i type="logical" name="LTETE"> F  </i>
   <i type="logical" name="LTRIPLET"> F  </i>
   <i type="logical" name="LFXCEPS"> F  </i>
   <i type="logical" name="LFXHEG"> F  </i>
   <i type="int" name="NATURALO">     2</i>
   <i type="logical" name="L2ORDER"> F  </i>
   <i type="logical" name="LMP2LT"> F  </i>
   <i type="logical" name="LUSEW"> F  </i>
   <i name="ENCUTGW">     -2.00000000</i>
   <i name="ENCUTGWSOFT">     -2.00000000</i>
   <i name="ENCUTLF">     -1.00000000</i>
   <i type="int" name="LMAXMP2">    -1</i>
   <i name="SCISSOR">      0.00000000</i>
   <i type="int" name="NOMEGA">     0</i>
   <i type="int" name="NOMEGAR">     0</i>
   <i type="int" name="NBANDSGW">    -1</i>
   <i type="int" name="NBANDSO">    -1</i>
   <i type="int" name="NBANDSV">    -1</i>
   <i type="int" name="NELM">   150</i>
   <i type="int" name="NELMHF">     1</i>
   <i type="int" name="DIM">     3</i>
   <i type="int" name="ANTIRES">     0</i>
   <i name="OMEGAMAX">    -30.00000000</i>
   <i name="OMEGAMIN">    -30.00000000</i>
   <i name="OMEGATL">   -200.00000000</i>
   <i type="int" name="OMEGAGRID">   140</i>
   <i name="CSHIFT">     -0.10000000</i>
   <i type="logical" name="SELFENERGY"> F  </i>
   <i type="logical" name="LSPECTRAL"> F  </i>
   <i type="logical" name="LSPECTRALGW"> F  </i>
   <i type="logical" name="LSINGLES"> F  </i>
   <i type="logical" name="LFERMIGW"> F  </i>
   <i type="logical" name="ODDONLYGW"> F  </i>
   <i type="logical" name="EVENONLYGW"> F  </i>
   <i type="int" name="NKREDLFX">     1</i>
   <i type="int" name="NKREDLFY">     1</i>
   <i type="int" name="NKREDLFZ">     1</i>
   <i type="int" name="MAXMEM">  2800</i>
   <i type="int" name="TELESCOPE">     0</i>
   <i type="int" name="TAUPAR">     1</i>
   <i type="int" name="OMEGAPAR">    -1</i>
   <i name="LAMBDA">      1.00000000</i>
  </separator>
  <separator name="External order field" >
   <i name="OFIELD_KAPPA">      0.00000000</i>
   <v name="OFIELD_K">      0.00000000      0.00000000      0.00000000</v>
   <i name="OFIELD_Q6_NEAR">      0.00000000</i>
   <i name="OFIELD_Q6_FAR">      0.00000000</i>
   <i name="OFIELD_A">      0.00000000</i>
  </separator>
 </parameters>
 <atominfo>
  <atoms>      62 </atoms>
  <types>       1 </types>
  <array name="atoms" >
   <dimension dim="1">ion</dimension>
   <field type="string">element</field>
   <field type="int">atomtype</field>
   <set>
    <rc><c>C </c><c>   1</c></rc>
    <rc><c>C </c><c>   1</c></rc>
    <rc><c>C </c><c>   1</c></rc>
    <rc><c>C </c><c>   1</c></rc>
    <rc><c>C </c><c>   1</c></rc>
    <rc><c>C </c><c>   1</c></rc>
    <rc><c>C </c><c>   1</c></rc>
    <rc><c>C </c><c>   1</c></rc>
    <rc><c>C </c><c>   1</c></rc>
    <rc><c>C </c><c>   1</c></rc>
    <rc><c>C </c><c>   1</c></rc>
    <rc><c>C </c><c>   1</c></rc>
    <rc><c>C </c><c>   1</c></rc>
    <rc><c>C </c><c>   1</c></rc>
    <rc><c>C </c><c>   1</c></rc>
    <rc><c>C </c><c>   1</c></rc>
    <rc><c>C </c><c>   1</c></rc>
    <rc><c>C </c><c>   1</c></rc>
    <rc><c>C </c><c>   1</c></rc>
    <rc><c>C </c><c>   1</c></rc>
    <rc><c>C </c><c>   1</c></rc>
    <rc><c>C </c><c>   1</c></rc>
    <rc><c>C </c><c>   1</c></rc>
    <rc><c>C </c><c>   1</c></rc>
    <rc><c>C </c><c>   1</c></rc>
    <rc><c>C </c><c>   1</c></rc>
    <rc><c>C </c><c>   1</c></rc>
    <rc><c>C </c><c>   1</c></rc>
    <rc><c>C </c><c>   1</c></rc>
    <rc><c>C </c><c>   1</c></rc>
    <rc><c>C </c><c>   1</c></rc>
    <rc><c>C </c><c>   1</c></rc>
    <rc><c>C </c><c>   1</c></rc>
    <rc><c>C </c><c>   1</c></rc>
    <rc><c>C </c><c>   1</c></rc>
    <rc><c>C </c><c>   1</c></rc>
    <rc><c>C </c><c>   1</c></rc>
    <rc><c>C </c><c>   1</c></rc>
    <rc><c>C </c><c>   1</c></rc>
    <rc><c>C </c><c>   1</c></rc>
    <rc><c>C </c><c>   1</c></rc>
    <rc><c>C </c><c>   1</c></rc>
    <rc><c>C </c><c>   1</c></rc>
    <rc><c>C </c><c>   1</c></rc>
    <rc><c>C </c><c>   1</c></rc>
    <rc><c>C </c><c>   1</c></rc>
    <rc><c>C </c><c>   1</c></rc>
    <rc><c>C </c><c>   1</c></rc>
    <rc><c>C </c><c>   1</c></rc>
    <rc><c>C </c><c>   1</c></rc>
    <rc><c>C </c><c>   1</c></rc>
    <rc><c>C </c><c>   1</c></rc>
    <rc><c>C </c><c>   1</c></rc>
    <rc><c>C </c><c>   1</c></rc>
    <rc><c>C </c><c>   1</c></rc>
    <rc><c>C </c><c>   1</c></rc>
    <rc><c>C </c><c>   1</c></rc>
    <rc><c>C </c><c>   1</c></rc>
    <rc><c>C </c><c>   1</c></rc>
    <rc><c>C </c><c>   1</c></rc>
    <rc><c>C </c><c>   1</c></rc>
    <rc><c>C </c><c>   1</c></rc>
   </set>
  </array>
  <array name="atomtypes" >
   <dimension dim="1">type</dimension>
   <field type="int">atomspertype</field>
   <field type="string">element</field>
   <field>mass</field>
   <field>valence</field>
   <field type="string">pseudopotential</field>
   <set>
    <rc><c>  62</c><c>C </c><c>     12.01100000</c><c>      4.00000000</c><c>  PAW_PBE C 08Apr2002                   </c></rc>
   </set>
  </array>
 </atominfo>
 <structure name="initialpos" >
  <crystal>
   <varray name="basis" >
    <v>       9.84672000       0.00000000       0.00000000 </v>
    <v>       4.93000000       8.52848000       0.00000000 </v>
    <v>       0.00000000       0.00000000      50.00000000 </v>
   </varray>
   <i name="volume">   4198.87772928 </i>
   <varray name="rec_basis" >
    <v>       0.10155666      -0.05870616       0.00000000 </v>
    <v>       0.00000000       0.11725419       0.00000000 </v>
    <v>       0.00000000       0.00000000       0.02000000 </v>
   </varray>
  </crystal>
  <varray name="positions" >
   <v>       0.99482267       0.99486898       0.38514455 </v>
   <v>       0.07791597       0.07805122       0.38594119 </v>
   <v>       0.08905428       0.08905776       0.45415060 </v>
   <v>       0.17314716       0.17309796       0.45429847 </v>
   <v>       0.99443060       0.24454251       0.38646416 </v>
   <v>       0.07868843       0.32814403       0.38671185 </v>
   <v>       0.08970095       0.33938871       0.45377929 </v>
   <v>       0.17533582       0.42312754       0.45143695 </v>
   <v>       0.99471515       0.49440665       0.38650547 </v>
   <v>       0.07908503       0.57771148       0.38834608 </v>
   <v>       0.08792401       0.59128078       0.45063776 </v>
   <v>       0.16866532       0.67566054       0.44733610 </v>
   <v>       0.99380282       0.74465252       0.38702507 </v>
   <v>       0.07756562       0.82799526       0.38705342 </v>
   <v>       0.08866489       0.83900133       0.45293243 </v>
   <v>       0.17192410       0.92283901       0.45296478 </v>
   <v>       0.24442413       0.99459444       0.38644880 </v>
   <v>       0.32806509       0.07878364       0.38670863 </v>
   <v>       0.33947215       0.08956684       0.45379489 </v>
   <v>       0.42325477       0.17508955       0.45146632 </v>
   <v>       0.24581560       0.24586853       0.38816020 </v>
   <v>       0.32901794       0.32899769       0.39364306 </v>
   <v>       0.33883809       0.33849742       0.45049951 </v>
   <v>       0.24247702       0.49671398       0.39507599 </v>
   <v>       0.30794401       0.59200704       0.40486762 </v>
   <v>       0.32452263       0.60908510       0.43504314 </v>
   <v>       0.41982599       0.67432211       0.44487422 </v>
   <v>       0.24096234       0.74802534       0.39260747 </v>
   <v>       0.32518372       0.82888292       0.38932030 </v>
   <v>       0.33887868       0.83758189       0.45164126 </v>
   <v>       0.42224107       0.92182694       0.45350335 </v>
   <v>       0.49436459       0.99473570       0.38649697 </v>
   <v>       0.57772631       0.07897963       0.38835686 </v>
   <v>       0.59142195       0.08768311       0.45068102 </v>
   <v>       0.67564501       0.16853944       0.44739034 </v>
   <v>       0.49677967       0.24224155       0.39512196 </v>
   <v>       0.59208073       0.30747897       0.40495256 </v>
   <v>       0.60866846       0.32455353       0.43512740 </v>
   <v>       0.67413371       0.41984942       0.44491900 </v>
   <v>       0.57776332       0.57806622       0.38950102 </v>
   <v>       0.58758865       0.58756555       0.44635357 </v>
   <v>       0.67078859       0.67069525       0.45184018 </v>
   <v>       0.49334881       0.74147476       0.38853509 </v>
   <v>       0.57713299       0.82699552       0.38620679 </v>
   <v>       0.58854200       0.83777951       0.45329344 </v>
   <v>       0.67218001       0.92197282       0.45355515 </v>
   <v>       0.74468372       0.99372398       0.38703449 </v>
   <v>       0.82793931       0.07756090       0.38706663 </v>
   <v>       0.83903988       0.08856840       0.45294591 </v>
   <v>       0.92280540       0.17191219       0.45297398 </v>
   <v>       0.74793874       0.24090409       0.39266137 </v>
   <v>       0.82868019       0.32528430       0.38936382 </v>
   <v>       0.83752191       0.33885226       0.45165145 </v>
   <v>       0.92189098       0.42215723       0.45349526 </v>
   <v>       0.74126916       0.49343418       0.38856494 </v>
   <v>       0.82690360       0.57717443       0.38622307 </v>
   <v>       0.83791575       0.58842231       0.45329068 </v>
   <v>       0.92217496       0.67202262       0.45354018 </v>
   <v>       0.74346012       0.74346415       0.38570328 </v>
   <v>       0.82755099       0.82750401       0.38584997 </v>
   <v>       0.83868947       0.83851371       0.45406337 </v>
   <v>       0.92178457       0.92169749       0.45485734 </v>
  </varray>
 </structure>
 <calculation>
  <scstep>
   <time name="dav">   69.77   69.94</time>
   <time name="total">   70.17   70.36</time>
   <energy>
    <i name="alphaZ">     75.20389891 </i>
    <i name="ewald"> 211803.64800034 </i>
    <i name="hartreedc">-218301.06705276 </i>
    <i name="XCdc">    817.23367288 </i>
    <i name="pawpsdc">   6728.36687556 </i>
    <i name="pawaedc">  -6763.67003570 </i>
    <i name="eentropy">      0.00000000 </i>
    <i name="bandstr">   -474.26615599 </i>
    <i name="atom">   9123.59704331 </i>
    <i name="e_fr_energy">   3009.04624655 </i>
    <i name="e_wo_entrp">   3009.04624655 </i>
    <i name="e_0_energy">   3009.04624655 </i>
   </energy>
  </scstep>
  <scstep>
   <time name="dav">   97.49   97.74</time>
   <time name="total">   97.50   97.76</time>
   <energy>
    <i name="e_fr_energy">    143.68924092 </i>
    <i name="e_wo_entrp">    143.68924092 </i>
    <i name="e_0_energy">    143.68924092 </i>
   </energy>
  </scstep>
  <scstep>
   <time name="dav">   80.00   80.20</time>
   <time name="total">   80.00   80.20</time>
   <energy>
    <i name="e_fr_energy">   -556.92137166 </i>
    <i name="e_wo_entrp">   -556.92137166 </i>
    <i name="e_0_energy">   -556.92137166 </i>
   </energy>
  </scstep>
  <scstep>
   <time name="dav">   79.56   79.76</time>
   <time name="total">   79.56   79.76</time>
   <energy>
    <i name="e_fr_energy">   -591.83667265 </i>
    <i name="e_wo_entrp">   -591.83667265 </i>
    <i name="e_0_energy">   -591.83667265 </i>
   </energy>
  </scstep>
  <scstep>
   <time name="dav">   82.74   82.94</time>
   <time name="total">   86.47   86.68</time>
   <energy>
    <i name="e_fr_energy">   -592.77176355 </i>
    <i name="e_wo_entrp">   -592.77176355 </i>
    <i name="e_0_energy">   -592.77176355 </i>
   </energy>
  </scstep>
  <scstep>
   <time name="dav">   73.91   74.09</time>
   <time name="total">   78.00   78.20</time>
   <energy>
    <i name="e_fr_energy">   -566.70348121 </i>
    <i name="e_wo_entrp">   -566.70348121 </i>
    <i name="e_0_energy">   -566.70348121 </i>
   </energy>
  </scstep>
  <scstep>
   <time name="dav">   73.17   73.35</time>
   <time name="total">   77.23   77.42</time>
   <energy>
    <i name="e_fr_energy">   -557.84742472 </i>
    <i name="e_wo_entrp">   -557.84742472 </i>
    <i name="e_0_energy">   -557.84742472 </i>
   </energy>
  </scstep>
  <scstep>
   <time name="dav">   76.89   77.08</time>
   <time name="total">   80.97   81.17</time>
   <energy>
    <i name="e_fr_energy">   -557.81549946 </i>
    <i name="e_wo_entrp">   -557.81549946 </i>
    <i name="e_0_energy">   -557.81549946 </i>
   </energy>
  </scstep>
  <scstep>
   <time name="dav">   73.64   73.82</time>
   <time name="total">   77.67   77.87</time>
   <energy>
    <i name="e_fr_energy">   -557.73832811 </i>
    <i name="e_wo_entrp">   -557.73832811 </i>
    <i name="e_0_energy">   -557.73832811 </i>
   </energy>
  </scstep>
  <scstep>
   <time name="dav">   74.93   75.14</time>
   <time name="total">   79.01   79.23</time>
   <energy>
    <i name="e_fr_energy">   -557.71622947 </i>
    <i name="e_wo_entrp">   -557.71622947 </i>
    <i name="e_0_energy">   -557.71622947 </i>
   </energy>
  </scstep>
  <scstep>
   <time name="dav">   75.33   75.51</time>
   <time name="total">   79.39   79.59</time>
   <energy>
    <i name="e_fr_energy">   -557.70701972 </i>
    <i name="e_wo_entrp">   -557.70701972 </i>
    <i name="e_0_energy">   -557.70701972 </i>
   </energy>
  </scstep>
  <scstep>
   <time name="dav">   73.27   73.45</time>
   <time name="total">   77.33   77.54</time>
   <energy>
    <i name="e_fr_energy">   -557.69784658 </i>
    <i name="e_wo_entrp">   -557.69784658 </i>
    <i name="e_0_energy">   -557.69784658 </i>
   </energy>
  </scstep>
  <scstep>
   <time name="dav">   73.63   73.80</time>
   <time name="total">   77.69   77.88</time>
   <energy>
    <i name="e_fr_energy">   -557.69759643 </i>
    <i name="e_wo_entrp">   -557.69759643 </i>
    <i name="e_0_energy">   -557.69759643 </i>
   </energy>
  </scstep>
  <scstep>
   <time name="dav">   71.45   71.63</time>
   <time name="total">   75.52   75.72</time>
   <energy>
    <i name="e_fr_energy">   -557.70265427 </i>
    <i name="e_wo_entrp">   -557.70265427 </i>
    <i name="e_0_energy">   -557.70265427 </i>
   </energy>
  </scstep>
  <scstep>
   <time name="dav">   72.69   72.86</time>
   <time name="total">   76.78   77.00</time>
   <energy>
    <i name="e_fr_energy">   -557.70765918 </i>
    <i name="e_wo_entrp">   -557.70765918 </i>
    <i name="e_0_energy">   -557.70765918 </i>
   </energy>
  </scstep>
  <scstep>
   <time name="dav">   73.37   73.55</time>
   <time name="total">   77.41   77.61</time>
   <energy>
    <i name="e_fr_energy">   -557.71080576 </i>
    <i name="e_wo_entrp">   -557.71080576 </i>
    <i name="e_0_energy">   -557.71080576 </i>
   </energy>
  </scstep>
  <scstep>
   <time name="dav">   74.31   74.52</time>
   <time name="total">   78.37   78.60</time>
   <energy>
    <i name="e_fr_energy">   -557.71283617 </i>
    <i name="e_wo_entrp">   -557.71283617 </i>
    <i name="e_0_energy">   -557.71283617 </i>
   </energy>
  </scstep>
  <scstep>
   <time name="dav">   75.49   75.69</time>
   <time name="total">   79.57   79.78</time>
   <energy>
    <i name="e_fr_energy">   -557.71385406 </i>
    <i name="e_wo_entrp">   -557.71385406 </i>
    <i name="e_0_energy">   -557.71385406 </i>
   </energy>
  </scstep>
  <scstep>
   <time name="dav">   72.79   72.97</time>
   <time name="total">   76.83   77.03</time>
   <energy>
    <i name="e_fr_energy">   -557.71471767 </i>
    <i name="e_wo_entrp">   -557.71471767 </i>
    <i name="e_0_energy">   -557.71471767 </i>
   </energy>
  </scstep>
  <scstep>
   <time name="dav">   74.28   74.46</time>
   <time name="total">   78.34   78.54</time>
   <energy>
    <i name="e_fr_energy">   -557.71519719 </i>
    <i name="e_wo_entrp">   -557.71519719 </i>
    <i name="e_0_energy">   -557.71519719 </i>
   </energy>
  </scstep>
  <scstep>
   <time name="dav">   66.28   66.44</time>
   <time name="total">   70.35   70.53</time>
   <energy>
    <i name="e_fr_energy">   -557.71541606 </i>
    <i name="e_wo_entrp">   -557.71541606 </i>
    <i name="e_0_energy">   -557.71541606 </i>
   </energy>
  </scstep>
  <scstep>
   <time name="dav">   64.43   64.59</time>
   <time name="total">   68.48   68.66</time>
   <energy>
    <i name="e_fr_energy">   -557.71551466 </i>
    <i name="e_wo_entrp">   -557.71551466 </i>
    <i name="e_0_energy">   -557.71551466 </i>
   </energy>
  </scstep>
  <scstep>
   <time name="dav">   62.97   63.11</time>
   <time name="total">   67.04   67.22</time>
   <energy>
    <i name="e_fr_energy">   -557.71556765 </i>
    <i name="e_wo_entrp">   -557.71556765 </i>
    <i name="e_0_energy">   -557.71556765 </i>
   </energy>
  </scstep>
  <scstep>
   <time name="dav">   53.47   53.60</time>
   <time name="total">   57.53   57.68</time>
   <energy>
    <i name="e_fr_energy">   -557.71558611 </i>
    <i name="e_wo_entrp">   -557.71558611 </i>
    <i name="e_0_energy">   -557.71558611 </i>
   </energy>
  </scstep>
  <scstep>
   <time name="dav">   51.75   51.88</time>
   <time name="total">   55.80   55.93</time>
   <energy>
    <i name="e_fr_energy">   -557.71559624 </i>
    <i name="e_wo_entrp">   -557.71559624 </i>
    <i name="e_0_energy">   -557.71559624 </i>
   </energy>
  </scstep>
  <scstep>
   <time name="dav">   51.67   51.80</time>
   <time name="total">   55.72   55.86</time>
   <energy>
    <i name="e_fr_energy">   -557.71560030 </i>
    <i name="e_wo_entrp">   -557.71560030 </i>
    <i name="e_0_energy">   -557.71560030 </i>
   </energy>
  </scstep>
  <scstep>
   <time name="dav">   49.78   49.92</time>
   <time name="total">   53.84   53.99</time>
   <energy>
    <i name="e_fr_energy">   -557.71560223 </i>
    <i name="e_wo_entrp">   -557.71560223 </i>
    <i name="e_0_energy">   -557.71560223 </i>
   </energy>
  </scstep>
  <scstep>
   <time name="dav">   51.04   51.16</time>
   <time name="total">   55.13   55.28</time>
   <energy>
    <i name="e_fr_energy">   -557.71560289 </i>
    <i name="e_wo_entrp">   -557.71560289 </i>
    <i name="e_0_energy">   -557.71560289 </i>
   </energy>
  </scstep>
  <scstep>
   <time name="dav">   49.39   49.51</time>
   <time name="total">   53.47   53.60</time>
   <energy>
    <i name="e_fr_energy">   -557.71560329 </i>
    <i name="e_wo_entrp">   -557.71560329 </i>
    <i name="e_0_energy">   -557.71560329 </i>
   </energy>
  </scstep>
  <scstep>
   <time name="dav">   52.33   52.45</time>
   <time name="total">   52.68   52.82</time>
   <energy>
    <i name="alphaZ">     75.20389891 </i>
    <i name="ewald"> 211803.64800034 </i>
    <i name="hartreedc">-219326.90730438 </i>
    <i name="XCdc">    850.58708994 </i>
    <i name="pawpsdc">  25079.17342924 </i>
    <i name="pawaedc"> -25120.96722493 </i>
    <i name="eentropy">      0.00000000 </i>
    <i name="bandstr">  -3042.05053581 </i>
    <i name="atom">   9123.59704331 </i>
    <i name="e_fr_energy">   -557.71560338 </i>
    <i name="e_wo_entrp">   -557.71560338 </i>
    <i name="e_0_energy">   -557.71560338 </i>
   </energy>
  </scstep>
  <structure>
   <crystal>
    <varray name="basis" >
     <v>       9.84672000       0.00000000       0.00000000 </v>
     <v>       4.93000000       8.52848000       0.00000000 </v>
     <v>       0.00000000       0.00000000      50.00000000 </v>
    </varray>
    <i name="volume">   4198.87772928 </i>
    <varray name="rec_basis" >
     <v>       0.10155666      -0.05870616       0.00000000 </v>
     <v>       0.00000000       0.11725419       0.00000000 </v>
     <v>       0.00000000       0.00000000       0.02000000 </v>
    </varray>
   </crystal>
   <varray name="positions" >
    <v>       0.99482267       0.99486898       0.38514455 </v>
    <v>       0.07791597       0.07805122       0.38594119 </v>
    <v>       0.08905428       0.08905776       0.45415060 </v>
    <v>       0.17314716       0.17309796       0.45429847 </v>
    <v>       0.99443060       0.24454251       0.38646416 </v>
    <v>       0.07868843       0.32814403       0.38671185 </v>
    <v>       0.08970095       0.33938871       0.45377929 </v>
    <v>       0.17533582       0.42312754       0.45143695 </v>
    <v>       0.99471515       0.49440665       0.38650547 </v>
    <v>       0.07908503       0.57771148       0.38834608 </v>
    <v>       0.08792401       0.59128078       0.45063776 </v>
    <v>       0.16866532       0.67566054       0.44733610 </v>
    <v>       0.99380282       0.74465252       0.38702507 </v>
    <v>       0.07756562       0.82799526       0.38705342 </v>
    <v>       0.08866489       0.83900133       0.45293243 </v>
    <v>       0.17192410       0.92283901       0.45296478 </v>
    <v>       0.24442413       0.99459444       0.38644880 </v>
    <v>       0.32806509       0.07878364       0.38670863 </v>
    <v>       0.33947215       0.08956684       0.45379489 </v>
    <v>       0.42325477       0.17508955       0.45146632 </v>
    <v>       0.24581560       0.24586853       0.38816020 </v>
    <v>       0.32901794       0.32899769       0.39364306 </v>
    <v>       0.33883809       0.33849742       0.45049951 </v>
    <v>       0.24247702       0.49671398       0.39507599 </v>
    <v>       0.30794401       0.59200704       0.40486762 </v>
    <v>       0.32452263       0.60908510       0.43504314 </v>
    <v>       0.41982599       0.67432211       0.44487422 </v>
    <v>       0.24096234       0.74802534       0.39260747 </v>
    <v>       0.32518372       0.82888292       0.38932030 </v>
    <v>       0.33887868       0.83758189       0.45164126 </v>
    <v>       0.42224107       0.92182694       0.45350335 </v>
    <v>       0.49436459       0.99473570       0.38649697 </v>
    <v>       0.57772631       0.07897963       0.38835686 </v>
    <v>       0.59142195       0.08768311       0.45068102 </v>
    <v>       0.67564501       0.16853944       0.44739034 </v>
    <v>       0.49677967       0.24224155       0.39512196 </v>
    <v>       0.59208073       0.30747897       0.40495256 </v>
    <v>       0.60866846       0.32455353       0.43512740 </v>
    <v>       0.67413371       0.41984942       0.44491900 </v>
    <v>       0.57776332       0.57806622       0.38950102 </v>
    <v>       0.58758865       0.58756555       0.44635357 </v>
    <v>       0.67078859       0.67069525       0.45184018 </v>
    <v>       0.49334881       0.74147476       0.38853509 </v>
    <v>       0.57713299       0.82699552       0.38620679 </v>
    <v>       0.58854200       0.83777951       0.45329344 </v>
    <v>       0.67218001       0.92197282       0.45355515 </v>
    <v>       0.74468372       0.99372398       0.38703449 </v>
    <v>       0.82793931       0.07756090       0.38706663 </v>
    <v>       0.83903988       0.08856840       0.45294591 </v>
    <v>       0.92280540       0.17191219       0.45297398 </v>
    <v>       0.74793874       0.24090409       0.39266137 </v>
    <v>       0.82868019       0.32528430       0.38936382 </v>
    <v>       0.83752191       0.33885226       0.45165145 </v>
    <v>       0.92189098       0.42215723       0.45349526 </v>
    <v>       0.74126916       0.49343418       0.38856494 </v>
    <v>       0.82690360       0.57717443       0.38622307 </v>
    <v>       0.83791575       0.58842231       0.45329068 </v>
    <v>       0.92217496       0.67202262       0.45354018 </v>
    <v>       0.74346012       0.74346415       0.38570328 </v>
    <v>       0.82755099       0.82750401       0.38584997 </v>
    <v>       0.83868947       0.83851371       0.45406337 </v>
    <v>       0.92178457       0.92169749       0.45485734 </v>
   </varray>
  </structure>
  <varray name="forces" >
   <v>       0.04848543       0.02692847       0.02295264 </v>
   <v>      -0.03017564      -0.01593995       0.01752056 </v>
   <v>       0.01821759       0.00994507      -0.01555749 </v>
   <v>      -0.00032290       0.00066831      -0.01824225 </v>
   <v>       0.01882821      -0.00505545       0.01517668 </v>
   <v>      -0.00529283       0.01457403       0.01641978 </v>
   <v>      -0.00887573      -0.01738353      -0.01923547 </v>
   <v>      -0.01120760       0.01269972      -0.02167554 </v>
   <v>      -0.00134397      -0.02102140       0.01838089 </v>
   <v>      -0.01622093       0.01653468       0.01433714 </v>
   <v>       0.02625705      -0.00662702      -0.02819378 </v>
   <v>      -0.02671489      -0.00798098      -0.01450021 </v>
   <v>       0.02045626       0.00387407       0.02376911 </v>
   <v>      -0.03902433      -0.01447592       0.02554995 </v>
   <v>       0.03413413       0.02592965      -0.02563340 </v>
   <v>      -0.01499757      -0.01564385      -0.02388235 </v>
   <v>       0.00677930       0.01728379       0.01562197 </v>
   <v>       0.00902838      -0.01054225       0.01647421 </v>
   <v>      -0.01923661       0.00013539      -0.01899141 </v>
   <v>       0.00516944      -0.01491802      -0.02189665 </v>
   <v>      -0.00128818      -0.00192182       0.01679612 </v>
   <v>      -0.00369088      -0.00153811       0.01875839 </v>
   <v>      -0.00157308      -0.00164020      -0.02598099 </v>
   <v>       0.00199696      -0.00675564       0.02326663 </v>
   <v>      -0.00800047      -0.00224187       0.00803652 </v>
   <v>       0.00602119       0.00621563      -0.00730074 </v>
   <v>       0.00384264      -0.00473766      -0.02303344 </v>
   <v>       0.02047296       0.01868816       0.01497701 </v>
   <v>      -0.00801687      -0.02466698       0.02827946 </v>
   <v>      -0.00552260       0.02196092      -0.01403478 </v>
   <v>       0.01834695      -0.00884571      -0.01808369 </v>
   <v>      -0.01845351       0.00826006       0.01816881 </v>
   <v>       0.00679191      -0.02166796       0.01429158 </v>
   <v>       0.00773376       0.02528342      -0.02861764 </v>
   <v>      -0.02117792      -0.01892218      -0.01474790 </v>
   <v>      -0.00429508       0.00448709       0.02320309 </v>
   <v>      -0.00579645      -0.00592666       0.00806884 </v>
   <v>       0.00808073       0.00214320      -0.00694483 </v>
   <v>      -0.00248530       0.00634355      -0.02272932 </v>
   <v>       0.00216246       0.00133895       0.02578922 </v>
   <v>       0.00391449       0.00199575      -0.01835301 </v>
   <v>       0.00173726       0.00173083      -0.01670552 </v>
   <v>      -0.00447903       0.01464450       0.02156940 </v>
   <v>       0.01975763      -0.00017969       0.01889923 </v>
   <v>      -0.00997349       0.01123425      -0.01660587 </v>
   <v>      -0.00631039      -0.01809642      -0.01601800 </v>
   <v>       0.01315725       0.01499667       0.02369730 </v>
   <v>      -0.03205986      -0.02522850       0.02562325 </v>
   <v>       0.04029513       0.01579134      -0.02561090 </v>
   <v>      -0.02219947      -0.00440343      -0.02397651 </v>
   <v>       0.02616386       0.00740606       0.01481056 </v>
   <v>      -0.02557456       0.00584452       0.02778311 </v>
   <v>       0.01676650      -0.01630777      -0.01390085 </v>
   <v>       0.00077736       0.02161358      -0.01831189 </v>
   <v>       0.01080983      -0.01123508       0.02132687 </v>
   <v>       0.00921194       0.01697060       0.01902732 </v>
   <v>       0.00508406      -0.01570727      -0.01666731 </v>
   <v>      -0.01898653       0.00530651      -0.01563063 </v>
   <v>      -0.00086505      -0.00038231       0.01815890 </v>
   <v>      -0.01658180      -0.00944881       0.01550731 </v>
   <v>       0.03052034       0.01668611      -0.01796127 </v>
   <v>      -0.05025746      -0.02807240      -0.02321820 </v>
  </varray>
  <varray name="stress" >
   <v>      -8.39710572      -3.48735056       0.00153880 </v>
   <v>      -3.48735052      -4.66325776       0.00352775 </v>
   <v>       0.00153881       0.00352775      -0.84567835 </v>
  </varray>
  <energy>
   <i name="e_fr_energy">   -564.92386800 </i>
   <i name="e_wo_entrp">   -564.92386800 </i>
   <i name="e_0_energy">      0.00000000 </i>
  </energy>
  <time name="totalsc"> 2372.35 2378.63</time>
 </calculation>
 <calculation>
  <scstep>
   <time name="dav">   67.69   67.85</time>
   <time name="total">   71.74   71.92</time>
   <energy>
    <i name="alphaZ">     77.38613822 </i>
    <i name="ewald"> 217412.70038637 </i>
    <i name="hartreedc">-224926.99628617 </i>
    <i name="XCdc">    858.40743759 </i>
    <i name="pawpsdc">  25079.17242004 </i>
    <i name="pawaedc"> -25120.96621526 </i>
    <i name="eentropy">      0.00000000 </i>
    <i name="bandstr">  -3060.70144474 </i>
    <i name="atom">   9123.59704331 </i>
    <i name="e_fr_energy">   -557.40052063 </i>
    <i name="e_wo_entrp">   -557.40052063 </i>
    <i name="e_0_energy">   -557.40052063 </i>
   </energy>
  </scstep>
  <scstep>
   <time name="dav">   72.61   72.79</time>
   <time name="total">   76.65   76.86</time>
   <energy>
    <i name="e_fr_energy">   -557.28950481 </i>
    <i name="e_wo_entrp">   -557.28950481 </i>
    <i name="e_0_energy">   -557.28950481 </i>
   </energy>
  </scstep>
  <scstep>
   <time name="dav">   73.61   73.80</time>
   <time name="total">   77.67   77.87</time>
   <energy>
    <i name="e_fr_energy">   -557.22625082 </i>
    <i name="e_wo_entrp">   -557.22625082 </i>
    <i name="e_0_energy">   -557.22625082 </i>
   </energy>
  </scstep>
  <scstep>
   <time name="dav">   75.01   75.20</time>
   <time name="total">   79.08   79.31</time>
   <energy>
    <i name="e_fr_energy">   -557.22060552 </i>
    <i name="e_wo_entrp">   -557.22060552 </i>
    <i name="e_0_energy">   -557.22060552 </i>
   </energy>
  </scstep>
  <scstep>
   <time name="dav">   72.81   72.99</time>
   <time name="total">   76.92   77.13</time>
   <energy>
    <i name="e_fr_energy">   -557.22026532 </i>
    <i name="e_wo_entrp">   -557.22026532 </i>
    <i name="e_0_energy">   -557.22026532 </i>
   </energy>
  </scstep>
  <scstep>
   <time name="dav">   76.66   76.85</time>
   <time name="total">   80.76   80.96</time>
   <energy>
    <i name="e_fr_energy">   -557.22007543 </i>
    <i name="e_wo_entrp">   -557.22007543 </i>
    <i name="e_0_energy">   -557.22007543 </i>
   </energy>
  </scstep>
  <scstep>
   <time name="dav">   74.15   74.35</time>
   <time name="total">   78.24   78.47</time>
   <energy>
    <i name="e_fr_energy">   -557.22006304 </i>
    <i name="e_wo_entrp">   -557.22006304 </i>
    <i name="e_0_energy">   -557.22006304 </i>
   </energy>
  </scstep>
  <scstep>
   <time name="dav">   71.16   71.34</time>
   <time name="total">   75.23   75.42</time>
   <energy>
    <i name="e_fr_energy">   -557.22014247 </i>
    <i name="e_wo_entrp">   -557.22014247 </i>
    <i name="e_0_energy">   -557.22014247 </i>
   </energy>
  </scstep>
  <scstep>
   <time name="dav">   74.49   74.67</time>
   <time name="total">   78.58   78.77</time>
   <energy>
    <i name="e_fr_energy">   -557.22023405 </i>
    <i name="e_wo_entrp">   -557.22023405 </i>
    <i name="e_0_energy">   -557.22023405 </i>
   </energy>
  </scstep>
  <scstep>
   <time name="dav">   72.00   72.18</time>
   <time name="total">   76.08   76.27</time>
   <energy>
    <i name="e_fr_energy">   -557.22031964 </i>
    <i name="e_wo_entrp">   -557.22031964 </i>
    <i name="e_0_energy">   -557.22031964 </i>
   </energy>
  </scstep>
  <scstep>
   <time name="dav">   65.07   65.23</time>
   <time name="total">   69.14   69.33</time>
   <energy>
    <i name="e_fr_energy">   -557.22038306 </i>
    <i name="e_wo_entrp">   -557.22038306 </i>
    <i name="e_0_energy">   -557.22038306 </i>
   </energy>
  </scstep>
  <scstep>
   <time name="dav">   72.11   72.29</time>
   <time name="total">   76.21   76.43</time>
   <energy>
    <i name="e_fr_energy">   -557.22045739 </i>
    <i name="e_wo_entrp">   -557.22045739 </i>
    <i name="e_0_energy">   -557.22045739 </i>
   </energy>
  </scstep>
  <scstep>
   <time name="dav">   64.60   64.75</time>
   <time name="total">   68.67   68.84</time>
   <energy>
    <i name="e_fr_energy">   -557.22048186 </i>
    <i name="e_wo_entrp">   -557.22048186 </i>
    <i name="e_0_energy">   -557.22048186 </i>
   </energy>
  </scstep>
  <scstep>
   <time name="dav">   62.12   62.28</time>
   <time name="total">   66.18   66.35</time>
   <energy>
    <i name="e_fr_energy">   -557.22050760 </i>
    <i name="e_wo_entrp">   -557.22050760 </i>
    <i name="e_0_energy">   -557.22050760 </i>
   </energy>
  </scstep>
  <scstep>
   <time name="dav">   55.86   56.01</time>
   <time name="total">   59.94   60.10</time>
   <energy>
    <i name="e_fr_energy">   -557.22051421 </i>
    <i name="e_wo_entrp">   -557.22051421 </i>
    <i name="e_0_energy">   -557.22051421 </i>
   </energy>
  </scstep>
  <scstep>
   <time name="dav">   53.42   53.55</time>
   <time name="total">   57.52   57.66</time>
   <energy>
    <i name="e_fr_energy">   -557.22052427 </i>
    <i name="e_wo_entrp">   -557.22052427 </i>
    <i name="e_0_energy">   -557.22052427 </i>
   </energy>
  </scstep>
  <scstep>
   <time name="dav">   53.19   53.32</time>
   <time name="total">   57.27   57.41</time>
   <energy>
    <i name="e_fr_energy">   -557.22052906 </i>
    <i name="e_wo_entrp">   -557.22052906 </i>
    <i name="e_0_energy">   -557.22052906 </i>
   </energy>
  </scstep>
  <scstep>
   <time name="dav">   54.30   54.43</time>
   <time name="total">   58.40   58.54</time>
   <energy>
    <i name="e_fr_energy">   -557.22053116 </i>
    <i name="e_wo_entrp">   -557.22053116 </i>
    <i name="e_0_energy">   -557.22053116 </i>
   </energy>
  </scstep>
  <scstep>
   <time name="dav">   52.20   52.32</time>
   <time name="total">   56.27   56.41</time>
   <energy>
    <i name="e_fr_energy">   -557.22053187 </i>
    <i name="e_wo_entrp">   -557.22053187 </i>
    <i name="e_0_energy">   -557.22053187 </i>
   </energy>
  </scstep>
  <scstep>
   <time name="dav">   50.16   50.28</time>
   <time name="total">   54.24   54.37</time>
   <energy>
    <i name="e_fr_energy">   -557.22053253 </i>
    <i name="e_wo_entrp">   -557.22053253 </i>
    <i name="e_0_energy">   -557.22053253 </i>
   </energy>
  </scstep>
  <scstep>
   <time name="dav">   50.86   50.99</time>
   <time name="total">   54.94   55.08</time>
   <energy>
    <i name="e_fr_energy">   -557.22053278 </i>
    <i name="e_wo_entrp">   -557.22053278 </i>
    <i name="e_0_energy">   -557.22053278 </i>
   </energy>
  </scstep>
  <scstep>
   <time name="dav">   49.06   49.18</time>
   <time name="total">   53.13   53.27</time>
   <energy>
    <i name="e_fr_energy">   -557.22053293 </i>
    <i name="e_wo_entrp">   -557.22053293 </i>
    <i name="e_0_energy">   -557.22053293 </i>
   </energy>
  </scstep>
  <scstep>
   <time name="dav">   50.19   50.31</time>
   <time name="total">   50.54   50.67</time>
   <energy>
    <i name="alphaZ">     77.38613822 </i>
    <i name="ewald"> 217412.70038637 </i>
    <i name="hartreedc">-224938.66232051 </i>
    <i name="XCdc">    857.85060334 </i>
    <i name="pawpsdc">  26641.88137540 </i>
    <i name="pawaedc"> -26684.27411777 </i>
    <i name="eentropy">      0.00000000 </i>
    <i name="bandstr">  -3047.69964134 </i>
    <i name="atom">   9123.59704331 </i>
    <i name="e_fr_energy">   -557.22053297 </i>
    <i name="e_wo_entrp">   -557.22053297 </i>
    <i name="e_0_energy">   -557.22053297 </i>
   </energy>
  </scstep>
  <structure>
   <crystal>
    <varray name="basis" >
     <v>       9.67810999      -0.07002439       0.00003090 </v>
     <v>       4.78493149       8.41232015       0.00007682 </v>
     <v>       0.00015690       0.00035969      49.91377417 </v>
    </varray>
    <i name="volume">   4080.47207892 </i>
    <varray name="rec_basis" >
     <v>       0.10290247      -0.05853097       0.00000010 </v>
     <v>       0.00085656       0.11838606      -0.00000086 </v>
     <v>      -0.00000007      -0.00000015       0.02003455 </v>
    </varray>
   </crystal>
   <varray name="positions" >
    <v>       0.99498395       0.99502131       0.38516670 </v>
    <v>       0.07781328       0.07796105       0.38595810 </v>
    <v>       0.08911537       0.08911401       0.45413559 </v>
    <v>       0.17314368       0.17310174       0.45428087 </v>
    <v>       0.99453717       0.24451391       0.38647880 </v>
    <v>       0.07862123       0.32822647       0.38672769 </v>
    <v>       0.08970670       0.33929037       0.45376073 </v>
    <v>       0.17524494       0.42319938       0.45141603 </v>
    <v>       0.99476810       0.49428774       0.38652320 </v>
    <v>       0.07895873       0.57780501       0.38835991 </v>
    <v>       0.08807142       0.59124329       0.45061056 </v>
    <v>       0.16855703       0.67561540       0.44732211 </v>
    <v>       0.99389207       0.74467444       0.38704801 </v>
    <v>       0.07741542       0.82791338       0.38707807 </v>
    <v>       0.08875869       0.83914801       0.45290769 </v>
    <v>       0.17189492       0.92275052       0.45294173 </v>
    <v>       0.24440840       0.99469221       0.38646387 </v>
    <v>       0.32813918       0.07872400       0.38672452 </v>
    <v>       0.33937752       0.08956761       0.45377657 </v>
    <v>       0.42332235       0.17500516       0.45144519 </v>
    <v>       0.24581474       0.24585766       0.38817641 </v>
    <v>       0.32900421       0.32898899       0.39366115 </v>
    <v>       0.33883503       0.33848814       0.45047444 </v>
    <v>       0.24250593       0.49667577       0.39509844 </v>
    <v>       0.30791116       0.59199436       0.40487537 </v>
    <v>       0.32453453       0.60912026       0.43503610 </v>
    <v>       0.41985824       0.67429531       0.44485199 </v>
    <v>       0.24100972       0.74813105       0.39262192 </v>
    <v>       0.32521431       0.82874338       0.38934758 </v>
    <v>       0.33878943       0.83770611       0.45162772 </v>
    <v>       0.42235601       0.92177691       0.45348591 </v>
    <v>       0.49425079       0.99478243       0.38651450 </v>
    <v>       0.57782095       0.07885707       0.38837065 </v>
    <v>       0.59138823       0.08782613       0.45065341 </v>
    <v>       0.67559484       0.16843240       0.44737611 </v>
    <v>       0.49674592       0.24226693       0.39514434 </v>
    <v>       0.59206912       0.30744544       0.40496034 </v>
    <v>       0.60870198       0.32456565       0.43512070 </v>
    <v>       0.67410357       0.41988530       0.44489707 </v>
    <v>       0.57777012       0.57807380       0.38952590 </v>
    <v>       0.58760218       0.58757684       0.44633587 </v>
    <v>       0.67079220       0.67070504       0.45182406 </v>
    <v>       0.49328539       0.74155760       0.38855590 </v>
    <v>       0.57723030       0.82699450       0.38622502 </v>
    <v>       0.58846132       0.83784306       0.45327742 </v>
    <v>       0.67220034       0.92187045       0.45353970 </v>
    <v>       0.74470571       0.99380881       0.38705736 </v>
    <v>       0.82785369       0.07741819       0.38709135 </v>
    <v>       0.83919258       0.08865773       0.45292120 </v>
    <v>       0.92270911       0.17188728       0.45295085 </v>
    <v>       0.74804595       0.24094599       0.39267566 </v>
    <v>       0.82853834       0.32531736       0.38939062 </v>
    <v>       0.83765024       0.33876001       0.45163803 </v>
    <v>       0.92183358       0.42227949       0.45347759 </v>
    <v>       0.74135394       0.49337062       0.38858552 </v>
    <v>       0.82690067       0.57727043       0.38624142 </v>
    <v>       0.83798514       0.58833346       0.45327460 </v>
    <v>       0.92206691       0.67205263       0.45352510 </v>
    <v>       0.74345696       0.74346199       0.38572080 </v>
    <v>       0.82749651       0.82745056       0.38586493 </v>
    <v>       0.83879175       0.83860810       0.45404604 </v>
    <v>       0.92161784       0.92153870       0.45483494 </v>
   </varray>
  </structure>
  <varray name="forces" >
   <v>      -0.50068679      -0.27770155      -0.05647515 </v>
   <v>       0.43629495       0.23708458       0.03007319 </v>
   <v>      -0.27607424      -0.14843593       0.01937748 </v>
   <v>       0.18573218       0.09489130       0.03094152 </v>
   <v>      -0.26361168      -0.09904730      -0.05762312 </v>
   <v>       0.22657839      -0.00441544      -0.03339442 </v>
   <v>      -0.13218442      -0.02202022       0.05161732 </v>
   <v>       0.31097209       0.11592026      -0.06061174 </v>
   <v>      -0.20001256       0.01245724      -0.05218928 </v>
   <v>       0.28726270       0.05827443      -0.04445376 </v>
   <v>      -0.33047108      -0.12035122       0.05106953 </v>
   <v>       0.42587940       0.20156523      -0.15857271 </v>
   <v>      -0.36421951      -0.13342140       0.01925853 </v>
   <v>       0.38045736       0.25484946       0.00058227 </v>
   <v>      -0.42901205      -0.19019144       0.00099901 </v>
   <v>       0.31158903       0.23943619      -0.01870098 </v>
   <v>      -0.23274998      -0.15993257      -0.06117445 </v>
   <v>       0.12269220       0.18129210      -0.03559823 </v>
   <v>      -0.10156247      -0.08801718       0.05315713 </v>
   <v>       0.27202516       0.19731696      -0.06148103 </v>
   <v>      -0.13055681      -0.06267557      -0.10825075 </v>
   <v>       0.19471400       0.10127699       0.10023569 </v>
   <v>       0.67136269       0.41304399      -0.10489793 </v>
   <v>       0.05975215      -0.07311740      -0.05926609 </v>
   <v>       0.44562114       0.01337341       0.20635145 </v>
   <v>      -0.24491507      -0.39108949      -0.20465627 </v>
   <v>       0.04585861      -0.10911413       0.06114477 </v>
   <v>      -0.39561688      -0.26430642       0.15296913 </v>
   <v>       0.27970436       0.20798250      -0.05168608 </v>
   <v>      -0.20918546      -0.21098305       0.04876913 </v>
   <v>       0.10078315       0.16747805       0.05539143 </v>
   <v>      -0.10080517      -0.16430392      -0.05513297 </v>
   <v>       0.20440257       0.20953143      -0.04908912 </v>
   <v>      -0.27825773      -0.21168253       0.05188342 </v>
   <v>       0.39746204       0.26526747      -0.15293470 </v>
   <v>      -0.04399221       0.11073719      -0.06002482 </v>
   <v>       0.24376354       0.39067018       0.20478666 </v>
   <v>      -0.44664994      -0.01367439      -0.20616466 </v>
   <v>      -0.05825781       0.07451694       0.06050823 </v>
   <v>      -0.67290947      -0.41136683       0.10477704 </v>
   <v>      -0.19507112      -0.10274212      -0.10031786 </v>
   <v>       0.12916342       0.06367800       0.10817919 </v>
   <v>      -0.27419331      -0.19656799       0.06131392 </v>
   <v>       0.09998191       0.08833442      -0.05320660 </v>
   <v>      -0.11879956      -0.18400139       0.03553392 </v>
   <v>       0.22991102       0.16313548       0.06071151 </v>
   <v>      -0.30282569      -0.23579092       0.01872586 </v>
   <v>       0.42006230       0.18675190      -0.00092633 </v>
   <v>      -0.38668918      -0.26053421      -0.00052582 </v>
   <v>       0.37211324       0.13569793      -0.01899963 </v>
   <v>      -0.42285851      -0.19987894       0.15852873 </v>
   <v>       0.32736112       0.12395163      -0.05082347 </v>
   <v>      -0.29005552      -0.05905972       0.04427917 </v>
   <v>       0.20217082      -0.01585329       0.05238268 </v>
   <v>      -0.30890901      -0.12129815       0.06029502 </v>
   <v>       0.13067967       0.02506634      -0.05181388 </v>
   <v>      -0.22520632       0.00824543       0.03335922 </v>
   <v>       0.26421159       0.09725391       0.05716944 </v>
   <v>      -0.18025977      -0.09550198      -0.03101912 </v>
   <v>       0.26867461       0.14647822      -0.01974885 </v>
   <v>      -0.43880716      -0.24096354      -0.03048252 </v>
   <v>       0.50816906       0.28248107       0.05587076 </v>
  </varray>
  <varray name="stress" >
   <v>      16.86893793       4.62333830       0.69888738 </v>
   <v>       4.62333833      11.90797106       0.40994465 </v>
   <v>       0.69888737       0.40994465      -0.01314783 </v>
  </varray>
  <energy>
   <i name="e_fr_energy">   -564.60974077 </i>
   <i name="e_wo_entrp">   -564.60974077 </i>
   <i name="e_0_energy">      0.00000000 </i>
  </energy>
  <time name="totalsc"> 1749.94 1754.48</time>
 </calculation>
 <calculation>
  <scstep>
   <time name="dav">   67.28   67.44</time>
   <time name="total">   71.35   71.53</time>
   <energy>
    <i name="alphaZ">     75.88669056 </i>
    <i name="ewald"> 213036.51591984 </i>
    <i name="hartreedc">-220582.21578580 </i>
    <i name="XCdc">    852.38438738 </i>
    <i name="pawpsdc">  26641.88132948 </i>
    <i name="pawaedc"> -26684.27407171 </i>
    <i name="eentropy">      0.00000000 </i>
    <i name="bandstr">  -3021.59062390 </i>
    <i name="atom">   9123.59704331 </i>
    <i name="e_fr_energy">   -557.81511085 </i>
    <i name="e_wo_entrp">   -557.81511085 </i>
    <i name="e_0_energy">   -557.81511085 </i>
   </energy>
  </scstep>
  <scstep>
   <time name="dav">   71.45   71.63</time>
   <time name="total">   75.53   75.72</time>
   <energy>
    <i name="e_fr_energy">   -557.77447437 </i>
    <i name="e_wo_entrp">   -557.77447437 </i>
    <i name="e_0_energy">   -557.77447437 </i>
   </energy>
  </scstep>
  <scstep>
   <time name="dav">   72.64   72.81</time>
   <time name="total">   76.69   76.88</time>
   <energy>
    <i name="e_fr_energy">   -557.73337225 </i>
    <i name="e_wo_entrp">   -557.73337225 </i>
    <i name="e_0_energy">   -557.73337225 </i>
   </energy>
  </scstep>
  <scstep>
   <time name="dav">   76.79   76.98</time>
   <time name="total">   80.86   81.06</time>
   <energy>
    <i name="e_fr_energy">   -557.73264260 </i>
    <i name="e_wo_entrp">   -557.73264260 </i>
    <i name="e_0_energy">   -557.73264260 </i>
   </energy>
  </scstep>
  <scstep>
   <time name="dav">   73.62   73.80</time>
   <time name="total">   77.68   77.89</time>
   <energy>
    <i name="e_fr_energy">   -557.73251717 </i>
    <i name="e_wo_entrp">   -557.73251717 </i>
    <i name="e_0_energy">   -557.73251717 </i>
   </energy>
  </scstep>
  <scstep>
   <time name="dav">   72.60   72.78</time>
   <time name="total">   76.68   76.86</time>
   <energy>
    <i name="e_fr_energy">   -557.73262789 </i>
    <i name="e_wo_entrp">   -557.73262789 </i>
    <i name="e_0_energy">   -557.73262789 </i>
   </energy>
  </scstep>
  <scstep>
   <time name="dav">   74.73   74.91</time>
   <time name="total">   78.80   79.00</time>
   <energy>
    <i name="e_fr_energy">   -557.73279750 </i>
    <i name="e_wo_entrp">   -557.73279750 </i>
    <i name="e_0_energy">   -557.73279750 </i>
   </energy>
  </scstep>
  <scstep>
   <time name="dav">   73.39   73.57</time>
   <time name="total">   77.48   77.70</time>
   <energy>
    <i name="e_fr_energy">   -557.73296627 </i>
    <i name="e_wo_entrp">   -557.73296627 </i>
    <i name="e_0_energy">   -557.73296627 </i>
   </energy>
  </scstep>
  <scstep>
   <time name="dav">   74.81   74.99</time>
   <time name="total">   78.89   79.08</time>
   <energy>
    <i name="e_fr_energy">   -557.73313876 </i>
    <i name="e_wo_entrp">   -557.73313876 </i>
    <i name="e_0_energy">   -557.73313876 </i>
   </energy>
  </scstep>
  <scstep>
   <time name="dav">   72.60   72.78</time>
   <time name="total">   76.70   76.90</time>
   <energy>
    <i name="e_fr_energy">   -557.73330599 </i>
    <i name="e_wo_entrp">   -557.73330599 </i>
    <i name="e_0_energy">   -557.73330599 </i>
   </energy>
  </scstep>
  <scstep>
   <time name="dav">   71.44   71.66</time>
   <time name="total">   75.50   75.74</time>
   <energy>
    <i name="e_fr_energy">   -557.73342334 </i>
    <i name="e_wo_entrp">   -557.73342334 </i>
    <i name="e_0_energy">   -557.73342334 </i>
   </energy>
  </scstep>
  <scstep>
   <time name="dav">   64.92   65.08</time>
   <time name="total">   69.01   69.21</time>
   <energy>
    <i name="e_fr_energy">   -557.73346028 </i>
    <i name="e_wo_entrp">   -557.73346028 </i>
    <i name="e_0_energy">   -557.73346028 </i>
   </energy>
  </scstep>
  <scstep>
   <time name="dav">   64.09   64.24</time>
   <time name="total">   68.17   68.40</time>
   <energy>
    <i name="e_fr_energy">   -557.73347646 </i>
    <i name="e_wo_entrp">   -557.73347646 </i>
    <i name="e_0_energy">   -557.73347646 </i>
   </energy>
  </scstep>
  <scstep>
   <time name="dav">   63.65   63.81</time>
   <time name="total">   67.72   67.89</time>
   <energy>
    <i name="e_fr_energy">   -557.73348812 </i>
    <i name="e_wo_entrp">   -557.73348812 </i>
    <i name="e_0_energy">   -557.73348812 </i>
   </energy>
  </scstep>
  <scstep>
   <time name="dav">   57.31   57.45</time>
   <time name="total">   61.37   61.53</time>
   <energy>
    <i name="e_fr_energy">   -557.73349303 </i>
    <i name="e_wo_entrp">   -557.73349303 </i>
    <i name="e_0_energy">   -557.73349303 </i>
   </energy>
  </scstep>
  <scstep>
   <time name="dav">   58.71   58.85</time>
   <time name="total">   62.76   62.92</time>
   <energy>
    <i name="e_fr_energy">   -557.73349586 </i>
    <i name="e_wo_entrp">   -557.73349586 </i>
    <i name="e_0_energy">   -557.73349586 </i>
   </energy>
  </scstep>
  <scstep>
   <time name="dav">   53.48   53.61</time>
   <time name="total">   57.57   57.73</time>
   <energy>
    <i name="e_fr_energy">   -557.73349711 </i>
    <i name="e_wo_entrp">   -557.73349711 </i>
    <i name="e_0_energy">   -557.73349711 </i>
   </energy>
  </scstep>
  <scstep>
   <time name="dav">   49.85   49.98</time>
   <time name="total">   53.92   54.05</time>
   <energy>
    <i name="e_fr_energy">   -557.73349772 </i>
    <i name="e_wo_entrp">   -557.73349772 </i>
    <i name="e_0_energy">   -557.73349772 </i>
   </energy>
  </scstep>
  <scstep>
   <time name="dav">   49.68   49.80</time>
   <time name="total">   53.76   53.90</time>
   <energy>
    <i name="e_fr_energy">   -557.73349814 </i>
    <i name="e_wo_entrp">   -557.73349814 </i>
    <i name="e_0_energy">   -557.73349814 </i>
   </energy>
  </scstep>
  <scstep>
   <time name="dav">   49.82   49.94</time>
   <time name="total">   53.89   54.02</time>
   <energy>
    <i name="e_fr_energy">   -557.73349833 </i>
    <i name="e_wo_entrp">   -557.73349833 </i>
    <i name="e_0_energy">   -557.73349833 </i>
   </energy>
  </scstep>
  <scstep>
   <time name="dav">   49.56   49.68</time>
   <time name="total">   53.64   53.80</time>
   <energy>
    <i name="e_fr_energy">   -557.73349848 </i>
    <i name="e_wo_entrp">   -557.73349848 </i>
    <i name="e_0_energy">   -557.73349848 </i>
   </energy>
  </scstep>
  <scstep>
   <time name="dav">   51.27   51.42</time>
   <time name="total">   51.62   51.77</time>
   <energy>
    <i name="alphaZ">     75.88669056 </i>
    <i name="ewald"> 213036.51591984 </i>
    <i name="hartreedc">-220561.07679461 </i>
    <i name="XCdc">    852.43660756 </i>
    <i name="pawpsdc">  25455.61686653 </i>
    <i name="pawaedc"> -25497.55509420 </i>
    <i name="eentropy">      0.00000000 </i>
    <i name="bandstr">  -3043.15473753 </i>
    <i name="atom">   9123.59704331 </i>
    <i name="e_fr_energy">   -557.73349853 </i>
    <i name="e_wo_entrp">   -557.73349853 </i>
    <i name="e_0_energy">   -557.73349853 </i>
   </energy>
  </scstep>
  <structure>
   <crystal>
    <varray name="basis" >
     <v>       9.78956435      -0.03998733       0.00463804 </v>
     <v>       4.86674922       8.49597540       0.00472330 </v>
     <v>       0.02402193       0.01435984      49.91332544 </v>
    </varray>
    <i name="volume">   4161.09826353 </i>
    <varray name="rec_basis" >
     <v>       0.10191115      -0.05837774      -0.00003225 </v>
     <v>       0.00047967       0.11742804      -0.00003401 </v>
     <v>      -0.00000952      -0.00000569       0.02003474 </v>
    </varray>
   </crystal>
   <varray name="positions" >
    <v>       0.99439666       0.99446671       0.38514786 </v>
    <v>       0.07832981       0.07843466       0.38596813 </v>
    <v>       0.08878698       0.08881745       0.45414206 </v>
    <v>       0.17336946       0.17329145       0.45429119 </v>
    <v>       0.99418199       0.24431489       0.38645958 </v>
    <v>       0.07901378       0.32822100       0.38671655 </v>
    <v>       0.08950166       0.33924508       0.45377795 </v>
    <v>       0.17566482       0.42343234       0.45139581 </v>
    <v>       0.99441322       0.49430945       0.38650579 </v>
    <v>       0.07939417       0.57792399       0.38834508 </v>
    <v>       0.08762244       0.59100132       0.45062760 </v>
    <v>       0.16909034       0.67601884       0.44726921 </v>
    <v>       0.99339800       0.74440622       0.38705443 </v>
    <v>       0.07781896       0.82842121       0.38707826 </v>
    <v>       0.08820893       0.83876694       0.45290803 </v>
    <v>       0.17219548       0.92322699       0.45293549 </v>
    <v>       0.24416545       0.99437360       0.38644346 </v>
    <v>       0.32817272       0.07908315       0.38671265 </v>
    <v>       0.33928928       0.08939264       0.45379431 </v>
    <v>       0.42359616       0.17539803       0.45142468 </v>
    <v>       0.24565211       0.24573224       0.38814029 </v>
    <v>       0.32923915       0.32919142       0.39369459 </v>
    <v>       0.33958287       0.33931199       0.45043944 </v>
    <v>       0.24267959       0.49653248       0.39507867 </v>
    <v>       0.30866172       0.59202707       0.40494421 </v>
    <v>       0.32449604       0.60834577       0.43496782 </v>
    <v>       0.42004317       0.67408086       0.44487239 </v>
    <v>       0.24058942       0.74760435       0.39267295 </v>
    <v>       0.32549088       0.82915739       0.38933034 </v>
    <v>       0.33863661       0.83728720       0.45164399 </v>
    <v>       0.42236547       0.92210851       0.45350438 </v>
    <v>       0.49423819       0.99445708       0.38649611 </v>
    <v>       0.57796698       0.07927305       0.38835428 </v>
    <v>       0.59111775       0.08740485       0.45067072 </v>
    <v>       0.67601737       0.16896102       0.44732508 </v>
    <v>       0.49656260       0.24248461       0.39512432 </v>
    <v>       0.59210604       0.30821908       0.40502866 </v>
    <v>       0.60794994       0.32453233       0.43505192 </v>
[...]
       <r>  -12.8515    1.0000 </r>
       <r>  -12.7680    1.0000 </r>
       <r>  -12.7317    1.0000 </r>
       <r>  -12.6072    1.0000 </r>
       <r>  -12.4840    1.0000 </r>
       <r>  -12.2496    1.0000 </r>
       <r>  -12.1969    1.0000 </r>
       <r>  -12.0860    1.0000 </r>
       <r>  -12.0200    1.0000 </r>
       <r>  -11.5561    1.0000 </r>
       <r>  -11.2809    1.0000 </r>
       <r>  -11.1239    1.0000 </r>
       <r>  -11.1074    1.0000 </r>
       <r>  -10.9269    1.0000 </r>
       <r>  -10.8403    1.0000 </r>
       <r>  -10.8117    1.0000 </r>
       <r>  -10.6878    1.0000 </r>
       <r>  -10.6053    1.0000 </r>
       <r>  -10.4658    1.0000 </r>
       <r>  -10.3451    1.0000 </r>
       <r>  -10.3332    1.0000 </r>
       <r>  -10.2794    1.0000 </r>
       <r>  -10.1910    1.0000 </r>
       <r>   -9.9640    1.0000 </r>
       <r>   -9.8840    1.0000 </r>
       <r>   -9.8763    1.0000 </r>
       <r>   -9.7964    1.0000 </r>
       <r>   -9.7537    1.0000 </r>
       <r>   -9.6313    1.0000 </r>
       <r>   -9.6271    1.0000 </r>
       <r>   -9.5106    1.0000 </r>
       <r>   -9.4548    1.0000 </r>
       <r>   -9.4460    1.0000 </r>
       <r>   -9.3862    1.0000 </r>
       <r>   -9.3456    1.0000 </r>
       <r>   -9.2128    1.0000 </r>
       <r>   -9.1780    1.0000 </r>
       <r>   -9.1524    1.0000 </r>
       <r>   -9.0387    1.0000 </r>
       <r>   -8.9285    1.0000 </r>
       <r>   -8.7197    1.0000 </r>
       <r>   -8.6558    1.0000 </r>
       <r>   -8.4600    1.0000 </r>
       <r>   -8.4217    1.0000 </r>
       <r>   -8.3987    1.0000 </r>
       <r>   -8.3653    1.0000 </r>
       <r>   -8.2568    1.0000 </r>
       <r>   -8.2198    1.0000 </r>
       <r>   -7.8816    1.0000 </r>
       <r>   -7.7400    1.0000 </r>
       <r>   -7.6286    1.0000 </r>
       <r>   -7.6135    1.0000 </r>
       <r>   -7.5486    1.0000 </r>
       <r>   -7.4444    1.0000 </r>
       <r>   -7.3142    1.0000 </r>
       <r>   -7.1800    1.0000 </r>
       <r>   -7.1626    1.0000 </r>
       <r>   -6.9431    1.0000 </r>
       <r>   -6.9089    1.0000 </r>
       <r>   -6.7732    1.0000 </r>
       <r>   -6.6130    1.0000 </r>
       <r>   -6.5952    1.0000 </r>
       <r>   -6.2312    1.0000 </r>
       <r>   -6.0838    1.0000 </r>
       <r>   -6.0472    1.0000 </r>
       <r>   -5.6661    1.0000 </r>
       <r>   -5.6208    1.0000 </r>
       <r>   -5.5027    1.0000 </r>
       <r>   -5.1305    1.0000 </r>
       <r>   -5.0601    1.0000 </r>
       <r>   -4.9037    1.0000 </r>
       <r>   -4.7839    1.0000 </r>
       <r>   -4.5900    1.0000 </r>
       <r>   -4.5191    1.0000 </r>
       <r>   -4.3698    1.0000 </r>
       <r>   -3.6432    1.0000 </r>
       <r>   -3.1119    0.0000 </r>
       <r>   -2.5528    0.0000 </r>
       <r>   -2.4619    0.0000 </r>
       <r>   -1.9761    0.0000 </r>
       <r>   -1.8207    0.0000 </r>
       <r>   -1.7669    0.0000 </r>
       <r>   -1.6675    0.0000 </r>
       <r>   -1.3316    0.0000 </r>
       <r>   -1.1776    0.0000 </r>
       <r>   -1.1235    0.0000 </r>
       <r>   -1.0117    0.0000 </r>
       <r>   -0.8265    0.0000 </r>
       <r>   -0.6925    0.0000 </r>
       <r>   -0.4997    0.0000 </r>
       <r>    0.1164    0.0000 </r>
       <r>    0.5053    0.0000 </r>
       <r>    0.7322    0.0000 </r>
       <r>    0.9051    0.0000 </r>
       <r>    0.9410    0.0000 </r>
       <r>    1.0502    0.0000 </r>
       <r>    1.1391    0.0000 </r>
       <r>    1.1444    0.0000 </r>
       <r>    1.2257    0.0000 </r>
       <r>    1.4859    0.0000 </r>
       <r>    1.5420    0.0000 </r>
       <r>    1.6229    0.0000 </r>
       <r>    1.7271    0.0000 </r>
       <r>    1.7949    0.0000 </r>
       <r>    1.8792    0.0000 </r>
       <r>    1.9132    0.0000 </r>
       <r>    1.9365    0.0000 </r>
       <r>    1.9488    0.0000 </r>
      </set>
      <set comment="kpoint 12">
       <r>  -22.5345    1.0000 </r>
       <r>  -22.4308    1.0000 </r>
       <r>  -22.2487    1.0000 </r>
       <r>  -22.1427    1.0000 </r>
       <r>  -22.1154    1.0000 </r>
       <r>  -21.6076    1.0000 </r>
       <r>  -21.3366    1.0000 </r>
       <r>  -20.8494    1.0000 </r>
       <r>  -20.7381    1.0000 </r>
       <r>  -20.6495    1.0000 </r>
       <r>  -20.3495    1.0000 </r>
       <r>  -20.1452    1.0000 </r>
       <r>  -19.9981    1.0000 </r>
       <r>  -19.7950    1.0000 </r>
       <r>  -19.6997    1.0000 </r>
       <r>  -19.5550    1.0000 </r>
       <r>  -19.5258    1.0000 </r>
       <r>  -19.3597    1.0000 </r>
       <r>  -19.1193    1.0000 </r>
       <r>  -18.9642    1.0000 </r>
       <r>  -18.8614    1.0000 </r>
       <r>  -18.7090    1.0000 </r>
       <r>  -18.5583    1.0000 </r>
       <r>  -17.8520    1.0000 </r>
       <r>  -17.5668    1.0000 </r>
       <r>  -17.3762    1.0000 </r>
       <r>  -17.1261    1.0000 </r>
       <r>  -16.8791    1.0000 </r>
       <r>  -16.8409    1.0000 </r>
       <r>  -16.4124    1.0000 </r>
       <r>  -16.4087    1.0000 </r>
       <r>  -15.9188    1.0000 </r>
       <r>  -15.9177    1.0000 </r>
       <r>  -15.8362    1.0000 </r>
       <r>  -15.7305    1.0000 </r>
       <r>  -15.5667    1.0000 </r>
       <r>  -15.5612    1.0000 </r>
       <r>  -15.3797    1.0000 </r>
       <r>  -14.9875    1.0000 </r>
       <r>  -14.5589    1.0000 </r>
       <r>  -14.4582    1.0000 </r>
       <r>  -14.3819    1.0000 </r>
       <r>  -14.2706    1.0000 </r>
       <r>  -14.0026    1.0000 </r>
       <r>  -13.9860    1.0000 </r>
       <r>  -13.6099    1.0000 </r>
       <r>  -13.5661    1.0000 </r>
       <r>  -13.3958    1.0000 </r>
       <r>  -13.0928    1.0000 </r>
       <r>  -13.0801    1.0000 </r>
       <r>  -13.0687    1.0000 </r>
       <r>  -12.9652    1.0000 </r>
       <r>  -12.4583    1.0000 </r>
       <r>  -11.9420    1.0000 </r>
       <r>  -11.8644    1.0000 </r>
       <r>  -11.7050    1.0000 </r>
       <r>  -11.5405    1.0000 </r>
       <r>  -11.3995    1.0000 </r>
       <r>  -11.3407    1.0000 </r>
       <r>  -11.0790    1.0000 </r>
       <r>  -11.0117    1.0000 </r>
       <r>  -10.9475    1.0000 </r>
       <r>  -10.8875    1.0000 </r>
       <r>  -10.8714    1.0000 </r>
       <r>  -10.6325    1.0000 </r>
       <r>  -10.5987    1.0000 </r>
       <r>  -10.5105    1.0000 </r>
       <r>  -10.2299    1.0000 </r>
       <r>  -10.1123    1.0000 </r>
       <r>  -10.0546    1.0000 </r>
       <r>  -10.0005    1.0000 </r>
       <r>   -9.9903    1.0000 </r>
       <r>   -9.9256    1.0000 </r>
       <r>   -9.8692    1.0000 </r>
       <r>   -9.8270    1.0000 </r>
       <r>   -9.7609    1.0000 </r>
       <r>   -9.7173    1.0000 </r>
       <r>   -9.6785    1.0000 </r>
       <r>   -9.6071    1.0000 </r>
       <r>   -9.5787    1.0000 </r>
       <r>   -9.5108    1.0000 </r>
       <r>   -9.5064    1.0000 </r>
       <r>   -9.4339    1.0000 </r>
       <r>   -9.4248    1.0000 </r>
       <r>   -9.2103    1.0000 </r>
       <r>   -9.0808    1.0000 </r>
       <r>   -8.9418    1.0000 </r>
       <r>   -8.8953    1.0000 </r>
       <r>   -8.7810    1.0000 </r>
       <r>   -8.6561    1.0000 </r>
       <r>   -8.5688    1.0000 </r>
       <r>   -8.5029    1.0000 </r>
       <r>   -8.2665    1.0000 </r>
       <r>   -8.1894    1.0000 </r>
       <r>   -8.0351    1.0000 </r>
       <r>   -8.0022    1.0000 </r>
       <r>   -7.7727    1.0000 </r>
       <r>   -7.7534    1.0000 </r>
       <r>   -7.7055    1.0000 </r>
       <r>   -7.6138    1.0000 </r>
       <r>   -7.5408    1.0000 </r>
       <r>   -7.3565    1.0000 </r>
       <r>   -7.3295    1.0000 </r>
       <r>   -7.2550    1.0000 </r>
       <r>   -7.1636    1.0000 </r>
       <r>   -7.1391    1.0000 </r>
       <r>   -7.0950    1.0000 </r>
       <r>   -6.8492    1.0000 </r>
       <r>   -6.6553    1.0000 </r>
       <r>   -6.5641    1.0000 </r>
       <r>   -6.5097    1.0000 </r>
       <r>   -6.2341    1.0000 </r>
       <r>   -6.0052    1.0000 </r>
       <r>   -5.7886    1.0000 </r>
       <r>   -5.7080    1.0000 </r>
       <r>   -5.4747    1.0000 </r>
       <r>   -5.2761    1.0000 </r>
       <r>   -5.0233    1.0000 </r>
       <r>   -4.8330    1.0000 </r>
       <r>   -4.6672    1.0000 </r>
       <r>   -4.4668    1.0000 </r>
       <r>   -4.3418    1.0000 </r>
       <r>   -4.1494    1.0000 </r>
       <r>   -3.4134    1.0000 </r>
       <r>   -3.1798    0.0000 </r>
       <r>   -2.6238    0.0000 </r>
       <r>   -2.4904    0.0000 </r>
       <r>   -2.3808    0.0000 </r>
       <r>   -2.0506    0.0000 </r>
       <r>   -1.8597    0.0000 </r>
       <r>   -1.6117    0.0000 </r>
       <r>   -1.4531    0.0000 </r>
       <r>   -1.3321    0.0000 </r>
       <r>   -1.2606    0.0000 </r>
       <r>   -0.7274    0.0000 </r>
       <r>   -0.5700    0.0000 </r>
       <r>   -0.3920    0.0000 </r>
       <r>    0.1875    0.0000 </r>
       <r>    0.2149    0.0000 </r>
       <r>    0.3901    0.0000 </r>
       <r>    0.7020    0.0000 </r>
       <r>    0.7510    0.0000 </r>
       <r>    0.8860    0.0000 </r>
       <r>    0.9401    0.0000 </r>
       <r>    1.0032    0.0000 </r>
       <r>    1.2339    0.0000 </r>
       <r>    1.2927    0.0000 </r>
       <r>    1.3301    0.0000 </r>
       <r>    1.4364    0.0000 </r>
       <r>    1.4874    0.0000 </r>
       <r>    1.7174    0.0000 </r>
       <r>    1.7909    0.0000 </r>
       <r>    1.7934    0.0000 </r>
       <r>    1.7965    0.0000 </r>
       <r>    1.8743    0.0000 </r>
       <r>    1.8748    0.0000 </r>
      </set>
      <set comment="kpoint 13">
       <r>  -22.5758    1.0000 </r>
       <r>  -22.4037    1.0000 </r>
       <r>  -22.2386    1.0000 </r>
       <r>  -22.1762    1.0000 </r>
       <r>  -22.0345    1.0000 </r>
       <r>  -21.6269    1.0000 </r>
       <r>  -21.3398    1.0000 </r>
       <r>  -20.8727    1.0000 </r>
       <r>  -20.8261    1.0000 </r>
       <r>  -20.5804    1.0000 </r>
       <r>  -20.3849    1.0000 </r>
       <r>  -20.1406    1.0000 </r>
       <r>  -20.0328    1.0000 </r>
       <r>  -19.7818    1.0000 </r>
       <r>  -19.6504    1.0000 </r>
       <r>  -19.5601    1.0000 </r>
       <r>  -19.4708    1.0000 </r>
       <r>  -19.2662    1.0000 </r>
       <r>  -19.0774    1.0000 </r>
       <r>  -19.0480    1.0000 </r>
       <r>  -18.9368    1.0000 </r>
       <r>  -18.7433    1.0000 </r>
       <r>  -18.4804    1.0000 </r>
       <r>  -17.8620    1.0000 </r>
       <r>  -17.5846    1.0000 </r>
       <r>  -17.4628    1.0000 </r>
       <r>  -17.2129    1.0000 </r>
       <r>  -16.8761    1.0000 </r>
       <r>  -16.6612    1.0000 </r>
       <r>  -16.5195    1.0000 </r>
       <r>  -16.1480    1.0000 </r>
       <r>  -16.0684    1.0000 </r>
       <r>  -15.8912    1.0000 </r>
       <r>  -15.7580    1.0000 </r>
       <r>  -15.7458    1.0000 </r>
       <r>  -15.6503    1.0000 </r>
       <r>  -15.6203    1.0000 </r>
       <r>  -15.2890    1.0000 </r>
       <r>  -15.1191    1.0000 </r>
       <r>  -14.6013    1.0000 </r>
       <r>  -14.4489    1.0000 </r>
       <r>  -14.3715    1.0000 </r>
       <r>  -14.1432    1.0000 </r>
       <r>  -14.0009    1.0000 </r>
       <r>  -13.9349    1.0000 </r>
       <r>  -13.6269    1.0000 </r>
       <r>  -13.5333    1.0000 </r>
       <r>  -13.4925    1.0000 </r>
       <r>  -13.2576    1.0000 </r>
       <r>  -13.1142    1.0000 </r>
       <r>  -13.0647    1.0000 </r>
       <r>  -12.8983    1.0000 </r>
       <r>  -12.3487    1.0000 </r>
       <r>  -12.0186    1.0000 </r>
       <r>  -11.8163    1.0000 </r>
       <r>  -11.6855    1.0000 </r>
       <r>  -11.5768    1.0000 </r>
       <r>  -11.4245    1.0000 </r>
       <r>  -11.3054    1.0000 </r>
       <r>  -11.0448    1.0000 </r>
       <r>  -10.9698    1.0000 </r>
       <r>  -10.9210    1.0000 </r>
       <r>  -10.8598    1.0000 </r>
       <r>  -10.8071    1.0000 </r>
       <r>  -10.6798    1.0000 </r>
       <r>  -10.5291    1.0000 </r>
       <r>  -10.4727    1.0000 </r>
       <r>  -10.2217    1.0000 </r>
       <r>  -10.1710    1.0000 </r>
       <r>  -10.1076    1.0000 </r>
       <r>  -10.0095    1.0000 </r>
       <r>   -9.9884    1.0000 </r>
       <r>   -9.9503    1.0000 </r>
       <r>   -9.8856    1.0000 </r>
       <r>   -9.8251    1.0000 </r>
       <r>   -9.8234    1.0000 </r>
       <r>   -9.7344    1.0000 </r>
       <r>   -9.6996    1.0000 </r>
       <r>   -9.6559    1.0000 </r>
       <r>   -9.6050    1.0000 </r>
       <r>   -9.5662    1.0000 </r>
       <r>   -9.4333    1.0000 </r>
       <r>   -9.4093    1.0000 </r>
       <r>   -9.3592    1.0000 </r>
       <r>   -9.2224    1.0000 </r>
       <r>   -9.1202    1.0000 </r>
       <r>   -8.9691    1.0000 </r>
       <r>   -8.8839    1.0000 </r>
       <r>   -8.8402    1.0000 </r>
       <r>   -8.5973    1.0000 </r>
       <r>   -8.5003    1.0000 </r>
       <r>   -8.3754    1.0000 </r>
       <r>   -8.3043    1.0000 </r>
       <r>   -8.2333    1.0000 </r>
       <r>   -8.0542    1.0000 </r>
       <r>   -7.9612    1.0000 </r>
       <r>   -7.8221    1.0000 </r>
       <r>   -7.7355    1.0000 </r>
       <r>   -7.6604    1.0000 </r>
       <r>   -7.6267    1.0000 </r>
       <r>   -7.5425    1.0000 </r>
       <r>   -7.3669    1.0000 </r>
       <r>   -7.3470    1.0000 </r>
       <r>   -7.2578    1.0000 </r>
       <r>   -7.1883    1.0000 </r>
       <r>   -7.0700    1.0000 </r>
       <r>   -7.0001    1.0000 </r>
       <r>   -6.8550    1.0000 </r>
       <r>   -6.6645    1.0000 </r>
       <r>   -6.6231    1.0000 </r>
       <r>   -6.5802    1.0000 </r>
       <r>   -6.2511    1.0000 </r>
       <r>   -5.9388    1.0000 </r>
       <r>   -5.8033    1.0000 </r>
       <r>   -5.7120    1.0000 </r>
       <r>   -5.6683    1.0000 </r>
       <r>   -5.4518    1.0000 </r>
       <r>   -4.9950    1.0000 </r>
       <r>   -4.8708    1.0000 </r>
       <r>   -4.7468    1.0000 </r>
       <r>   -4.3951    1.0000 </r>
       <r>   -4.1341    1.0000 </r>
       <r>   -3.8303    1.0000 </r>
       <r>   -3.4935    1.0000 </r>
       <r>   -3.0897    0.0000 </r>
       <r>   -2.8269    0.0000 </r>
       <r>   -2.5325    0.0000 </r>
       <r>   -2.3837    0.0000 </r>
       <r>   -2.1049    0.0000 </r>
       <r>   -1.9670    0.0000 </r>
       <r>   -1.6565    0.0000 </r>
       <r>   -1.5571    0.0000 </r>
       <r>   -1.3809    0.0000 </r>
       <r>   -0.9829    0.0000 </r>
       <r>   -0.4846    0.0000 </r>
       <r>   -0.3089    0.0000 </r>
       <r>   -0.2100    0.0000 </r>
       <r>    0.0164    0.0000 </r>
       <r>    0.1061    0.0000 </r>
       <r>    0.3753    0.0000 </r>
       <r>    0.5589    0.0000 </r>
       <r>    0.7583    0.0000 </r>
       <r>    0.8308    0.0000 </r>
       <r>    0.9336    0.0000 </r>
       <r>    0.9955    0.0000 </r>
       <r>    1.1625    0.0000 </r>
       <r>    1.2850    0.0000 </r>
       <r>    1.3268    0.0000 </r>
       <r>    1.4296    0.0000 </r>
       <r>    1.6448    0.0000 </r>
       <r>    1.7143    0.0000 </r>
       <r>    1.7850    0.0000 </r>
       <r>    1.7902    0.0000 </r>
       <r>    1.8475    0.0000 </r>
       <r>    1.8676    0.0000 </r>
       <r>    1.8722    0.0000 </r>
      </set>
     </set>
    </set>
   </array>
  </eigenvalues>
  <separator name="orbital magnetization" >
   <v name="MAGDIPOLOUT">      0.00000000      0.00000000      0.00000000</v>
  </separator>
 </calculation>
 <structure name="finalpos" >
  <crystal>
   <varray name="basis" >
    <v>       9.77793745      -0.04025818       0.02897554 </v>
    <v>       4.86069124       8.48556873       0.02941921 </v>
    <v>       0.14859692       0.08830162      49.73165690 </v>
   </varray>
   <i name="volume">   4135.98516310 </i>
   <varray name="rec_basis" >
    <v>       0.10203102      -0.05844457      -0.00020109 </v>
    <v>       0.00048469       0.11757023      -0.00021020 </v>
    <v>      -0.00005973      -0.00003550       0.02010816 </v>
   </varray>
  </crystal>
  <varray name="positions" >
   <v>       0.99482403       0.99485387       0.38526325 </v>
   <v>       0.07804682       0.07816236       0.38598079 </v>
   <v>       0.08929337       0.08926390       0.45405424 </v>
   <v>       0.17346125       0.17341878       0.45424891 </v>
   <v>       0.99455985       0.24451806       0.38644784 </v>
   <v>       0.07889253       0.32822877       0.38666152 </v>
   <v>       0.09022351       0.33967811       0.45372557 </v>
   <v>       0.17635471       0.42359887       0.45134126 </v>
   <v>       0.99440620       0.49447934       0.38650914 </v>
   <v>       0.07917357       0.57773260       0.38834391 </v>
   <v>       0.08782385       0.59153303       0.45057756 </v>
   <v>       0.16841673       0.67622262       0.44723305 </v>
   <v>       0.99351979       0.74466110       0.38715126 </v>
   <v>       0.07729393       0.82817252       0.38720720 </v>
   <v>       0.08848264       0.83925859       0.45277420 </v>
   <v>       0.17192441       0.92309319       0.45283917 </v>
   <v>       0.24444477       0.99466823       0.38642874 </v>
   <v>       0.32815800       0.07897708       0.38665332 </v>
   <v>       0.33976303       0.09010300       0.45374233 </v>
   <v>       0.42369547       0.17617905       0.45136911 </v>
   <v>       0.24599994       0.24603481       0.38806952 </v>
   <v>       0.32918961       0.32918644       0.39356932 </v>
   <v>       0.34053457       0.34029216       0.45034490 </v>
   <v>       0.24287889       0.49672315       0.39500280 </v>
   <v>       0.30884664       0.59154704       0.40482701 </v>
   <v>       0.32500446       0.60803794       0.43510178 </v>
   <v>       0.41984261       0.67383096       0.44495936 </v>
   <v>       0.24039131       0.74823499       0.39271341 </v>
   <v>       0.32495629       0.82892698       0.38937890 </v>
   <v>       0.33887491       0.83743933       0.45164764 </v>
   <v>       0.42215525       0.92213146       0.45350391 </v>
   <v>       0.49445059       0.99443107       0.38649662 </v>
   <v>       0.57773184       0.07912459       0.38835160 </v>
   <v>       0.59164824       0.08763797       0.45062145 </v>
   <v>       0.67621555       0.16832814       0.44728564 </v>
   <v>       0.49676315       0.24273321       0.39503921 </v>
   <v>       0.59160074       0.30852651       0.40489675 </v>
   <v>       0.60776067       0.32501577       0.43517146 </v>
   <v>       0.67372825       0.41984016       0.44499574 </v>
   <v>       0.57607107       0.57627069       0.38965480 </v>
   <v>       0.58741625       0.58737787       0.44642973 </v>
   <v>       0.67060607       0.67052806       0.45193110 </v>
   <v>       0.49291043       0.74038474       0.38863125 </v>
   <v>       0.57684354       0.82646061       0.38625857 </v>
   <v>       0.58844647       0.83758763       0.45334796 </v>
   <v>       0.67216226       0.92189474       0.45357293 </v>
   <v>       0.74468011       0.99347055       0.38715996 </v>
   <v>       0.82812416       0.07730515       0.38722484 </v>
   <v>       0.83931174       0.08839210       0.45279189 </v>
   <v>       0.92308535       0.17190253       0.45284789 </v>
   <v>       0.74818803       0.24034172       0.39276597 </v>
   <v>       0.82878291       0.32502988       0.38942288 </v>
   <v>       0.83743274       0.33883118       0.45165540 </v>
   <v>       0.92219824       0.42208494       0.45349160 </v>
   <v>       0.74024940       0.49296619       0.38865925 </v>
   <v>       0.82638341       0.57688455       0.38627552 </v>
   <v>       0.83771306       0.58833453       0.45333991 </v>
   <v>       0.92204553       0.67204623       0.45355394 </v>
   <v>       0.74314277       0.74314573       0.38575190 </v>
   <v>       0.82731425       0.82729983       0.38594564 </v>
   <v>       0.83855794       0.83840193       0.45402084 </v>
   <v>       0.92178190       0.92170977       0.45473682 </v>
  </varray>
 </structure>
</modeling>
