unknown system                          
           1
     9.846720    0.000000    0.000000
     4.930000    8.528480    0.000000
     0.000000    0.000000   50.000000
   C 
  62
Direct configuration=     1
   0.99482267  0.99486898  0.38514455
   0.07791597  0.07805122  0.38594119
   0.08905428  0.08905776  0.45415060
   0.17314716  0.17309796  0.45429847
   0.99443060  0.24454251  0.38646416
   0.07868843  0.32814403  0.38671185
   0.08970095  0.33938871  0.45377929
   0.17533582  0.42312754  0.45143695
   0.99471515  0.49440665  0.38650547
   0.07908503  0.57771148  0.38834608
   0.08792401  0.59128078  0.45063776
   0.16866532  0.67566054  0.44733610
   0.99380282  0.74465252  0.38702507
   0.07756562  0.82799526  0.38705342
   0.08866489  0.83900133  0.45293243
   0.17192410  0.92283901  0.45296478
   0.24442413  0.99459444  0.38644880
   0.32806509  0.07878364  0.38670863
   0.33947215  0.08956684  0.45379489
   0.42325477  0.17508955  0.45146632
   0.24581560  0.24586853  0.38816020
   0.32901794  0.32899769  0.39364306
   0.33883809  0.33849742  0.45049951
   0.24247702  0.49671398  0.39507599
   0.30794401  0.59200704  0.40486762
   0.32452263  0.60908510  0.43504314
   0.41982599  0.67432211  0.44487422
   0.24096234  0.74802534  0.39260747
   0.32518372  0.82888292  0.38932030
   0.33887868  0.83758189  0.45164126
   0.42224107  0.92182694  0.45350335
   0.49436459  0.99473570  0.38649697
   0.57772631  0.07897963  0.38835686
   0.59142195  0.08768311  0.45068102
   0.67564501  0.16853944  0.44739034
   0.49677967  0.24224155  0.39512196
   0.59208073  0.30747897  0.40495256
   0.60866846  0.32455353  0.43512740
   0.67413371  0.41984942  0.44491900
   0.57776332  0.57806622  0.38950102
   0.58758865  0.58756555  0.44635357
   0.67078859  0.67069525  0.45184018
   0.49334881  0.74147476  0.38853509
   0.57713299  0.82699552  0.38620679
   0.58854200  0.83777951  0.45329344
   0.67218001  0.92197282  0.45355515
   0.74468372  0.99372398  0.38703449
   0.82793931  0.07756090  0.38706663
   0.83903988  0.08856840  0.45294591
   0.92280540  0.17191219  0.45297398
   0.74793874  0.24090409  0.39266137
   0.82868019  0.32528430  0.38936382
   0.83752191  0.33885226  0.45165145
   0.92189098  0.42215723  0.45349526
   0.74126916  0.49343418  0.38856494
   0.82690360  0.57717443  0.38622307
   0.83791575  0.58842231  0.45329068
   0.92217496  0.67202262  0.45354018
   0.74346012  0.74346415  0.38570328
   0.82755099  0.82750401  0.38584997
   0.83868947  0.83851371  0.45406337
   0.92178457  0.92169749  0.45485734
unknown system                          
           1
     9.678110   -0.070024    0.000031
     4.784931    8.412320    0.000077
     0.000157    0.000360   49.913774
   C 
  62
Direct configuration=     2
   0.99498395  0.99502131  0.38516670
   0.07781328  0.07796105  0.38595810
   0.08911537  0.08911401  0.45413559
   0.17314368  0.17310174  0.45428087
   0.99453717  0.24451391  0.38647880
   0.07862123  0.32822647  0.38672769
   0.08970670  0.33929037  0.45376073
   0.17524494  0.42319938  0.45141603
   0.99476810  0.49428774  0.38652320
   0.07895873  0.57780501  0.38835991
   0.08807142  0.59124329  0.45061056
   0.16855703  0.67561540  0.44732211
   0.99389207  0.74467444  0.38704801
   0.07741542  0.82791338  0.38707807
   0.08875869  0.83914801  0.45290769
   0.17189492  0.92275052  0.45294173
   0.24440840  0.99469221  0.38646387
   0.32813918  0.07872400  0.38672452
   0.33937752  0.08956761  0.45377657
   0.42332235  0.17500516  0.45144519
   0.24581474  0.24585766  0.38817641
   0.32900421  0.32898899  0.39366115
   0.33883503  0.33848814  0.45047444
   0.24250593  0.49667577  0.39509844
   0.30791116  0.59199436  0.40487537
   0.32453453  0.60912026  0.43503610
   0.41985824  0.67429531  0.44485199
   0.24100972  0.74813105  0.39262192
   0.32521431  0.82874338  0.38934758
   0.33878943  0.83770611  0.45162772
   0.42235601  0.92177691  0.45348591
   0.49425079  0.99478243  0.38651450
   0.57782095  0.07885707  0.38837065
   0.59138823  0.08782613  0.45065341
   0.67559484  0.16843240  0.44737611
   0.49674592  0.24226693  0.39514434
   0.59206912  0.30744544  0.40496034
   0.60870198  0.32456565  0.43512070
   0.67410357  0.41988530  0.44489707
   0.57777012  0.57807380  0.38952590
   0.58760218  0.58757684  0.44633587
   0.67079220  0.67070504  0.45182406
   0.49328539  0.74155760  0.38855590
   0.57723030  0.82699450  0.38622502
   0.58846132  0.83784306  0.45327742
   0.67220034  0.92187045  0.45353970
   0.74470571  0.99380881  0.38705736
   0.82785369  0.07741819  0.38709135
   0.83919258  0.08865773  0.45292120
   0.92270911  0.17188728  0.45295085
   0.74804595  0.24094599  0.39267566
   0.82853834  0.32531736  0.38939062
   0.83765024  0.33876001  0.45163803
   0.92183358  0.42227949  0.45347759
   0.74135394  0.49337062  0.38858552
   0.82690067  0.57727043  0.38624142
   0.83798514  0.58833346  0.45327460
   0.92206691  0.67205263  0.45352510
   0.74345696  0.74346199  0.38572080
   0.82749651  0.82745056  0.38586493
   0.83879175  0.83860810  0.45404604
   0.92161784  0.92153870  0.45483494
unknown system                          
           1
     9.789564   -0.039987    0.004638
     4.866749    8.495975    0.004723
     0.024022    0.014360   49.913325
   C 
  62
Direct configuration=     3
   0.99439666  0.99446671  0.38514786
   0.07832981  0.07843466  0.38596813
   0.08878698  0.08881745  0.45414206
   0.17336946  0.17329145  0.45429119
   0.99418199  0.24431489  0.38645958
   0.07901378  0.32822100  0.38671655
   0.08950166  0.33924508  0.45377795
   0.17566482  0.42343234  0.45139581
   0.99441322  0.49430945  0.38650579
   0.07939417  0.57792399  0.38834508
   0.08762244  0.59100132  0.45062760
   0.16909034  0.67601884  0.44726921
   0.99339800  0.74440622  0.38705443
   0.07781896  0.82842121  0.38707826
   0.08820893  0.83876694  0.45290803
   0.17219548  0.92322699  0.45293549
   0.24416545  0.99437360  0.38644346
   0.32817272  0.07908315  0.38671265
   0.33928928  0.08939264  0.45379431
   0.42359616  0.17539803  0.45142468
   0.24565211  0.24573224  0.38814029
   0.32923915  0.32919142  0.39369459
   0.33958287  0.33931199  0.45043944
   0.24267959  0.49653248  0.39507867
   0.30866172  0.59202707  0.40494421
   0.32449604  0.60834577  0.43496782
   0.42004317  0.67408086  0.44487239
   0.24058942  0.74760435  0.39267295
   0.32549088  0.82915739  0.38933034
   0.33863661  0.83728720  0.45164399
   0.42236547  0.92210851  0.45350438
   0.49423819  0.99445708  0.38649611
   0.57796698  0.07927305  0.38835428
   0.59111775  0.08740485  0.45067072
   0.67601737  0.16896102  0.44732508
   0.49656260  0.24248461  0.39512432
   0.59210604  0.30821908  0.40502866
   0.60794994  0.32453233  0.43505192
   0.67393111  0.42003137  0.44491725
   0.57701800  0.57725323  0.38956086
   0.58736805  0.58737151  0.44630240
   0.67095147  0.67083241  0.45186015
   0.49300713  0.74116617  0.38857635
   0.57731553  0.82717007  0.38620727
   0.58843709  0.83747862  0.45328928
   0.67243531  0.92219533  0.45355995
   0.74441662  0.99333965  0.38706360
   0.82839147  0.07779235  0.38709104
   0.83878390  0.08813860  0.45292102
   0.92321448  0.17216010  0.45294451
   0.74751617  0.24054591  0.39272855
   0.82897848  0.32556638  0.38937367
   0.83721077  0.33863944  0.45165281
   0.92219546  0.42225112  0.45349506
   0.74094284  0.49312709  0.38860564
   0.82710016  0.57732171  0.38622414
   0.83759120  0.58834650  0.45328573
   0.92242486  0.67224813  0.45354417
   0.74324116  0.74327115  0.38571045
   0.82781413  0.82774316  0.38585834
   0.83827468  0.83812680  0.45403587
   0.92221329  0.92210283  0.45485358
unknown system                          
           1
     9.797544   -0.035497    0.009791
     4.874633    8.500839    0.009941
     0.050397    0.029946   49.889188
   C 
  62
Direct configuration=     4
   0.99587268  0.99586333  0.38515173
   0.07703155  0.07723992  0.38596429
   0.08967802  0.08963498  0.45413441
   0.17278809  0.17281228  0.45429750
   0.99511217  0.24492404  0.38644943
   0.07817103  0.32810959  0.38669406
   0.09050664  0.33948189  0.45376836
   0.17609799  0.42291792  0.45139330
   0.99536756  0.49437896  0.38650915
   0.07896098  0.57748747  0.38832973
   0.08869573  0.59184982  0.45057232
   0.16776880  0.67532021  0.44727226
   0.99461876  0.74505141  0.38708067
   0.07694014  0.82711473  0.38710785
   0.08959631  0.83959461  0.45287536
   0.17147132  0.92204765  0.45291092
   0.24487396  0.99521831  0.38643329
   0.32797130  0.07831648  0.38668931
   0.33963024  0.09034422  0.45378481
   0.42297458  0.17594256  0.45142159
   0.24622735  0.24622787  0.38815439
   0.32892104  0.32895677  0.39365296
   0.33999043  0.33963853  0.45039831
   0.24315291  0.49695930  0.39510697
   0.30844931  0.59131045  0.40481370
   0.32524515  0.60850916  0.43510013
   0.41954968  0.67363299  0.44484624
   0.24132606  0.74888424  0.39267146
   0.32456963  0.82814047  0.38938364
   0.33915372  0.83765699  0.45165893
   0.42221902  0.92119690  0.45350208
   0.49439273  0.99535722  0.38649836
   0.57745815  0.07891109  0.38833975
   0.59202670  0.08843406  0.45061701
   0.67528023  0.16767528  0.44732705
   0.49705597  0.24292671  0.39515042
   0.59136150  0.30805574  0.40489677
   0.60816172  0.32525235  0.43518284
   0.67345446  0.41960217  0.44488919
   0.57661751  0.57692086  0.38960184
   0.58768420  0.58760957  0.44634449
   0.67038253  0.67033299  0.45184607
   0.49363485  0.74062099  0.38857926
   0.57697711  0.82621991  0.38621667
   0.58862219  0.83825381  0.45331254
   0.67174162  0.92133827  0.45356997
   0.74512240  0.99450452  0.38708807
   0.82702401  0.07697700  0.38712359
   0.83967191  0.08946275  0.45289127
   0.92197221  0.17150798  0.45291810
   0.74882937  0.24124160  0.39272606
   0.82792074  0.32470596  0.38942846
   0.83765142  0.33907663  0.45166866
   0.92122848  0.42219449  0.45349163
   0.74049740  0.49365698  0.38860798
   0.82610762  0.57707205  0.38623361
   0.83843481  0.58844640  0.45330807
   0.92148910  0.67164486  0.45355406
   0.74380632  0.74375372  0.38570406
   0.82694272  0.82693369  0.38586602
   0.83957403  0.83933343  0.45403934
   0.92072349  0.92068979  0.45484966
unknown system                          
           1
     9.778705   -0.030000    0.010515
     4.869961    8.482080    0.010668
     0.054064    0.032083   49.874730
   C 
  62
Direct configuration=     5
   0.99472864  0.99476814  0.38517079
   0.07807627  0.07821283  0.38596791
   0.08902882  0.08903144  0.45412285
   0.17328196  0.17323211  0.45429402
   0.99442220  0.24449727  0.38645904
   0.07880670  0.32821404  0.38670013
   0.09003005  0.33947312  0.45376470
   0.17612380  0.42320461  0.45138254
   0.99467318  0.49442307  0.38650683
   0.07935337  0.57770504  0.38834657
   0.08791836  0.59131142  0.45060158
   0.16842243  0.67598743  0.44725067
   0.99373803  0.74457647  0.38707635
   0.07755967  0.82809969  0.38712094
   0.08855663  0.83900300  0.45286317
   0.17200279  0.92289910  0.45291455
   0.24438607  0.99457560  0.38644230
   0.32813775  0.07890239  0.38669504
   0.33955265  0.08990778  0.45378139
   0.42331661  0.17591630  0.45141093
   0.24590855  0.24596024  0.38814396
   0.32913552  0.32912842  0.39367052
   0.33986074  0.33956268  0.45039997
   0.24282499  0.49674685  0.39506996
   0.30848449  0.59172145  0.40482964
   0.32482037  0.60847941  0.43508531
   0.41979863  0.67393600  0.44488344
   0.24063309  0.74825266  0.39269175
   0.32515953  0.82887139  0.38935535
   0.33888871  0.83728873  0.45164269
   0.42222209  0.92186817  0.45350462
   0.49438305  0.99469477  0.38649590
   0.57771888  0.07927346  0.38835581
   0.59144516  0.08769471  0.45064545
   0.67597285  0.16831094  0.44730658
   0.49680667  0.24262799  0.39511355
   0.59178386  0.30808527  0.40491166
   0.60812616  0.32483985  0.43516705
   0.67378404  0.41981569  0.44492648
   0.57674302  0.57700082  0.38960014
   0.58747148  0.58743599  0.44632694
   0.67069653  0.67060292  0.45185648
   0.49328853  0.74064748  0.38858992
   0.57705416  0.82665516  0.38622007
   0.58846780  0.83766159  0.45330678
   0.67221916  0.92198881  0.45356079
   0.74460360  0.99366522  0.38708451
   0.82804910  0.07755935  0.38713586
   0.83904535  0.08846485  0.45287826
   0.92286887  0.17198804  0.45292257
   0.74818217  0.24057644  0.39274744
   0.82868765  0.32525139  0.38939940
   0.83725338  0.33885953  0.45165170
   0.92193174  0.42214100  0.45349401
   0.74047982  0.49336020  0.38861867
   0.82657552  0.57709063  0.38623720
   0.83779845  0.58834991  0.45330198
   0.92218293  0.67206708  0.45354430
   0.74332354  0.74333172  0.38570751
   0.82757808  0.82753130  0.38587744
   0.83852766  0.83835157  0.45403561
   0.92187767  0.92179637  0.45483045
unknown system                          
           1
     9.775885   -0.039743    0.013185
     4.860112    8.484147    0.013366
     0.067710    0.040120   49.852040
   C 
  62
Direct configuration=     6
   0.99490681  0.99496778  0.38518122
   0.07789401  0.07799984  0.38596569
   0.08909744  0.08910656  0.45411910
   0.17335493  0.17329260  0.45428976
   0.99446405  0.24461548  0.38645753
   0.07881928  0.32827088  0.38669808
   0.08993155  0.33942599  0.45376096
   0.17584481  0.42356167  0.45137582
   0.99449604  0.49435298  0.38650781
   0.07919336  0.57786429  0.38834148
   0.08790798  0.59121189  0.45059379
   0.16869404  0.67587390  0.44723750
   0.99377140  0.74455337  0.38708524
   0.07738178  0.82816270  0.38712692
   0.08847973  0.83919737  0.45285720
   0.17203884  0.92284392  0.45290518
   0.24449049  0.99463093  0.38644044
   0.32821217  0.07889449  0.38669250
   0.33948793  0.08981891  0.45377770
   0.42369889  0.17561077  0.45140442
   0.24586281  0.24592975  0.38813916
   0.32919851  0.32916543  0.39367099
   0.34004556  0.33978026  0.45038590
   0.24283528  0.49658569  0.39505197
   0.30870682  0.59184941  0.40487610
   0.32468446  0.60825573  0.43504043
   0.41998615  0.67390459  0.44490203
   0.24073513  0.74798732  0.39270461
   0.32528110  0.82885880  0.38936325
   0.33871579  0.83746505  0.45164865
   0.42230678  0.92202964  0.45350384
   0.49429968  0.99453353  0.38649669
   0.57788911  0.07909810  0.38834995
   0.59132548  0.08770475  0.45063753
   0.67587045  0.16857688  0.44729376
   0.49662024  0.24265957  0.39509519
   0.59191934  0.30830917  0.40495676
   0.60790328  0.32471145  0.43512082
   0.67377356  0.41997823  0.44494481
   0.57655750  0.57678398  0.38961412
   0.58740786  0.58739779  0.44632660
   0.67074225  0.67063442  0.45186133
   0.49290600  0.74095357  0.38859634
   0.57711668  0.82674458  0.38622372
   0.58839334  0.83766856  0.45330924
   0.67211261  0.92193598  0.45356244
   0.74456853  0.99371764  0.38709384
   0.82812641  0.07736703  0.38714185
   0.83922498  0.08840164  0.45287228
   0.92283506  0.17201020  0.45291369
   0.74791105  0.24068873  0.39276070
   0.82869597  0.32535435  0.38940712
   0.83741301  0.33869917  0.45165692
   0.92211024  0.42221075  0.45349304
   0.74076127  0.49300056  0.38862528
   0.82667249  0.57713841  0.38624085
   0.83778577  0.58829315  0.45330395
   0.92214218  0.67194788  0.45354560
   0.74325270  0.74327049  0.38571169
   0.82750792  0.82745757  0.38588114
   0.83871255  0.83856445  0.45403761
   0.92169816  0.92159635  0.45481985
unknown system                          
           1
     9.782224   -0.038586    0.015112
     4.864286    8.488621    0.015321
     0.077623    0.045996   49.839100
   C 
  62
Direct configuration=     7
   0.99475694  0.99478508  0.38518890
   0.07813166  0.07827602  0.38596873
   0.08914820  0.08913276  0.45411323
   0.17328656  0.17325198  0.45428714
   0.99451537  0.24442869  0.38645479
   0.07883528  0.32819652  0.38669378
   0.09006201  0.33951860  0.45375871
   0.17624246  0.42324883  0.45136885
   0.99457781  0.49448261  0.38650784
   0.07927621  0.57767829  0.38834211
   0.08783138  0.59148258  0.45058528
   0.16841351  0.67603455  0.44724659
   0.99359324  0.74469799  0.38709133
   0.07758919  0.82807052  0.38714108
   0.08859486  0.83896199  0.45284191
   0.17187536  0.92304430  0.45289953
   0.24434190  0.99464445  0.38643773
   0.32810940  0.07893831  0.38668802
   0.33961015  0.08993042  0.45377542
   0.42334893  0.17604771  0.45139729
   0.24593158  0.24596649  0.38813367
   0.32912214  0.32912327  0.39365414
   0.34011638  0.33982005  0.45037731
   0.24283458  0.49681654  0.39505448
   0.30873611  0.59158905  0.40485965
   0.32495593  0.60821281  0.43505784
   0.41972722  0.67392229  0.44490066
   0.24059028  0.74825135  0.39269677
   0.32498316  0.82895957  0.38937108
   0.33892652  0.83735455  0.45164753
   0.42215106  0.92196667  0.45350410
   0.49445378  0.99459545  0.38649643
   0.57768164  0.07920836  0.38835113
   0.59162044  0.08760728  0.45062958
   0.67601706  0.16831149  0.44730178
   0.49687780  0.24264190  0.39509667
   0.59164855  0.30835176  0.40493952
   0.60787364  0.32497262  0.43513749
   0.67377425  0.41974564  0.44494246
   0.57648869  0.57674270  0.38962265
   0.58748451  0.58744163  0.44634369
   0.67067414  0.67059587  0.45186681
   0.49325670  0.74051603  0.38860341
   0.57699738  0.82663270  0.38622593
   0.58849504  0.83762674  0.45331369
   0.67226580  0.92191805  0.45356505
   0.74472852  0.99352013  0.38709953
   0.82801188  0.07760083  0.38715709
   0.83901595  0.08849463  0.45285806
   0.92301243  0.17186557  0.45290762
   0.74819040  0.24053061  0.39275180
   0.82877602  0.32507914  0.38941553
   0.83733088  0.33888590  0.45165642
   0.92202594  0.42208177  0.45349299
   0.74035984  0.49331761  0.38863217
   0.82654533  0.57704364  0.38624303
   0.83777010  0.58836683  0.45330819
   0.92208924  0.67213670  0.45354820
   0.74331633  0.74331248  0.38571425
   0.82746040  0.82742997  0.38588696
   0.83847198  0.83828913  0.45403438
   0.92184959  0.92177890  0.45481203
unknown system                          
           1
     9.779044   -0.035333    0.018047
     4.865513    8.484768    0.018297
     0.092642    0.054900   49.818299
   C 
  62
Direct configuration=     8
   0.99483207  0.99488540  0.38520669
   0.07804682  0.07815029  0.38596976
   0.08908845  0.08909497  0.45410303
   0.17341574  0.17334898  0.45428228
   0.99454048  0.24448785  0.38645392
   0.07879935  0.32827670  0.38668925
   0.09019960  0.33945352  0.45375366
   0.17632625  0.42337764  0.45135927
   0.99462857  0.49432140  0.38650783
   0.07923943  0.57787434  0.38834320
   0.08787403  0.59141606  0.45058231
   0.16839683  0.67604799  0.44723491
   0.99367152  0.74456097  0.38710378
   0.07742183  0.82812770  0.38715600
   0.08851286  0.83915047  0.45282717
   0.17203562  0.92294210  0.45288669
   0.24437001  0.99469590  0.38643603
   0.32821940  0.07887461  0.38668280
   0.33951726  0.09008917  0.45377056
   0.42349472  0.17612052  0.45138757
   0.24590335  0.24596442  0.38812243
   0.32921645  0.32920293  0.39364257
   0.34017530  0.33990665  0.45036686
   0.24288066  0.49673004  0.39504545
   0.30867232  0.59160179  0.40482903
   0.32494255  0.60826499  0.43509077
   0.41982912  0.67385412  0.44491058
   0.24056180  0.74827618  0.39270792
   0.32507410  0.82888552  0.38937433
   0.33871331  0.83739875  0.45164718
   0.42233372  0.92190072  0.45350454
   0.49427153  0.99466304  0.38649602
   0.57789224  0.07916428  0.38835156
   0.59153225  0.08767943  0.45062628
   0.67604371  0.16828699  0.44729068
   0.49677617  0.24271026  0.39508699
   0.59166173  0.30829992  0.40490684
   0.60793720  0.32496001  0.43516842
   0.67372730  0.41983292  0.44495179
   0.57642843  0.57665755  0.38963302
   0.58739038  0.58736101  0.44635548
   0.67070152  0.67059945  0.45187808
   0.49311068  0.74044301  0.38861306
   0.57708802  0.82647428  0.38623073
   0.58838661  0.83768859  0.45331883
   0.67223447  0.92186918  0.45356653
   0.74457118  0.99362183  0.38711235
   0.82809224  0.07741329  0.38717186
   0.83918470  0.08843587  0.45284315
   0.92293562  0.17200271  0.45289521
   0.74820805  0.24051571  0.39276356
   0.82873142  0.32514827  0.38941844
   0.83736723  0.33868914  0.45165547
   0.92197715  0.42224214  0.45349301
   0.74027886  0.49318623  0.38864163
   0.82640498  0.57711079  0.38624796
   0.83780615  0.58828700  0.45331262
   0.92206521  0.67207620  0.45354883
   0.74319123  0.74321412  0.38571901
   0.82751680  0.82746811  0.38589708
   0.83855912  0.83841415  0.45403308
   0.92177395  0.92167875  0.45479405
unknown system                          
           1
     9.775140   -0.036489    0.022026
     4.862555    8.481502    0.022334
     0.113003    0.066975   49.787585
   C 
  62
Direct configuration=     9
   0.99481616  0.99483383  0.38522865
   0.07801844  0.07816526  0.38597225
   0.08924184  0.08920783  0.45408867
   0.17332665  0.17330015  0.45427519
   0.99446029  0.24458490  0.38645421
   0.07890861  0.32814809  0.38668176
   0.09013703  0.33971588  0.45374285
   0.17622817  0.42352117  0.45135122
   0.99441647  0.49460690  0.38650896
   0.07927042  0.57763593  0.38834427
   0.08783759  0.59139640  0.45057953
   0.16843070  0.67617500  0.44722689
   0.99362187  0.74471233  0.38711861
   0.07735442  0.82819240  0.38717740
   0.08847819  0.83919135  0.45280442
   0.17185531  0.92301202  0.45287220
   0.24451587  0.99456887  0.38643612
   0.32806076  0.07901079  0.38667481
   0.33981434  0.09000376  0.45375968
   0.42361861  0.17604341  0.45137945
   0.24600845  0.24603816  0.38811181
   0.32914747  0.32914496  0.39361466
   0.34034939  0.34008013  0.45035304
   0.24284932  0.49675385  0.39502750
   0.30871207  0.59166785  0.40482227
   0.32487870  0.60820569  0.43509997
   0.41980378  0.67388223  0.44493076
   0.24044717  0.74822563  0.39271735
   0.32507816  0.82893899  0.38937637
   0.33897619  0.83734773  0.45164635
   0.42202003  0.92213032  0.45350376
   0.49458584  0.99443140  0.38649678
   0.57763151  0.07921616  0.38835257
   0.59152543  0.08762602  0.45062417
   0.67616064  0.16833764  0.44728142
   0.49680197  0.24268164  0.39506713
   0.59172600  0.30835908  0.40489796
   0.60789649  0.32489396  0.43517551
   0.67375893  0.41980896  0.44497023
   0.57625631  0.57648217  0.38964675
   0.58745823  0.58741961  0.44638372
   0.67059808  0.67052416  0.45188874
   0.49298701  0.74052099  0.38862107
   0.57679305  0.82655941  0.38624148
   0.58854279  0.83755465  0.45332671
   0.67209185  0.92199430  0.45356617
   0.74474814  0.99355100  0.38712685
   0.82812966  0.07737248  0.38719457
   0.83925106  0.08837297  0.45282168
   0.92298257  0.17185111  0.45288041
   0.74817344  0.24038949  0.39277180
   0.82876918  0.32516644  0.38942110
   0.83733618  0.33892815  0.45165463
   0.92218752  0.42195757  0.45349184
   0.74037491  0.49304449  0.38864955
   0.82647044  0.57684629  0.38625859
   0.83769661  0.58841538  0.45331996
   0.92214523  0.67197955  0.45354822
   0.74327580  0.74326458  0.38572595
   0.82736727  0.82735605  0.38591137
   0.83858541  0.83839953  0.45403018
   0.92178958  0.92172987  0.45477186
unknown system                          
           1
     9.778427   -0.038056    0.030144
     4.862844    8.485286    0.030575
     0.154644    0.091720   49.726243
   C 
  62
Direct configuration=    10
   0.99457966  0.99464628  0.38526860
   0.07830372  0.07837515  0.38598059
   0.08911608  0.08911863  0.45405829
   0.17367650  0.17359775  0.45425605
   0.99443758  0.24440436  0.38645049
   0.07901832  0.32838850  0.38666731
   0.09011020  0.33962499  0.45372702
   0.17636526  0.42368729  0.45133166
   0.99422892  0.49439915  0.38650869
   0.07923432  0.57784411  0.38834483
   0.08770336  0.59148211  0.45057285
   0.16851853  0.67636644  0.44721853
   0.99331913  0.74451876  0.38714901
   0.07745278  0.82839902  0.38721572
   0.08822299  0.83912095  0.45276591
   0.17209843  0.92326858  0.45284096
   0.24429561  0.99457846  0.38643078
   0.32834365  0.07907777  0.38665878
   0.33967916  0.09001313  0.45374403
   0.42380265  0.17617253  0.45135972
   0.24591348  0.24597170  0.38807317
   0.32926215  0.32924813  0.39357994
   0.34063802  0.34041162  0.45032994
   0.24282898  0.49663684  0.39498880
   0.30891702  0.59167142  0.40483980
   0.32487610  0.60796762  0.43508840
   0.41994113  0.67387112  0.44497314
   0.24023722  0.74814202  0.39272662
   0.32502925  0.82902299  0.38938350
   0.33874248  0.83739155  0.45164714
   0.42225639  0.92229115  0.45350476
   0.49434738  0.99427446  0.38649582
   0.57786283  0.07917031  0.38835200
   0.59157861  0.08754002  0.45061686
   0.67636857  0.16842170  0.44727240
   0.49666433  0.24269486  0.39502555
   0.59172815  0.30859685  0.40491017
   0.60769024  0.32489096  0.43515878
   0.67377817  0.41992712  0.44500986
   0.57596598  0.57615299  0.38966967
   0.58734479  0.58731511  0.44641912
   0.67069021  0.67059275  0.45192744
   0.49280192  0.74039070  0.38864062
   0.57692653  0.82655060  0.38625689
   0.58826542  0.83748427  0.45334252
   0.67230718  0.92198686  0.45357087
   0.74451067  0.99329880  0.38715814
   0.82837905  0.07744018  0.38723312
   0.83915138  0.08816184  0.45278336
   0.92329127  0.17204603  0.45285016
   0.74808830  0.24019850  0.39278045
   0.82890032  0.32508293  0.38942764
   0.83737025  0.33872000  0.45165446
   0.92237828  0.42216256  0.45349209
   0.74024182  0.49287426  0.38866879
   0.82649351  0.57694111  0.38627406
   0.83758765  0.58817658  0.45333414
   0.92216851  0.67215880  0.45355127
   0.74293215  0.74296572  0.38574479
   0.82748630  0.82744361  0.38594154
   0.83830196  0.83818641  0.45402101
   0.92202883  0.92191989  0.45473139
unknown system                          
           1
     9.781504   -0.041564    0.023351
     4.861347    8.489468    0.023687
     0.119799    0.071068   49.777074
   C 
  62
Direct configuration=    11
   0.99493311  0.99497231  0.38523003
   0.07798921  0.07810127  0.38597444
   0.08925286  0.08923746  0.45408386
   0.17341723  0.17336608  0.45426848
   0.99463340  0.24451897  0.38645032
   0.07878247  0.32826809  0.38667725
   0.09023134  0.33951716  0.45374143
   0.17632992  0.42347575  0.45134960
   0.99456886  0.49436614  0.38650908
   0.07913220  0.57782407  0.38834021
   0.08786821  0.59154198  0.45057418
   0.16840722  0.67605099  0.44723474
   0.99363979  0.74463024  0.38712573
   0.07733851  0.82805869  0.38717862
   0.08859318  0.83922247  0.45280355
   0.17195819  0.92297437  0.45286469
   0.24442613  0.99476359  0.38643191
   0.32820260  0.07886366  0.38666998
   0.33959325  0.09011293  0.45375829
   0.42358275  0.17613782  0.45137782
   0.24595253  0.24599935  0.38809979
   0.32919526  0.32918683  0.39361077
   0.34039194  0.34013316  0.45035241
   0.24289888  0.49674779  0.39502559
   0.30883368  0.59152797  0.40484811
   0.32501956  0.60808126  0.43507562
   0.41981398  0.67382511  0.44493313
   0.24056194  0.74825446  0.39270974
   0.32494585  0.82888978  0.38938218
   0.33877452  0.83749458  0.45165072
   0.42227897  0.92196462  0.45350364
   0.49432731  0.99459790  0.38649691
   0.57783170  0.07906947  0.38834827
   0.59165909  0.08767568  0.45061829
   0.67604406  0.16830843  0.44728908
   0.49679171  0.24273877  0.39506488
   0.59158537  0.30848344  0.40492243
   0.60777474  0.32503445  0.43514982
   0.67370849  0.41981534  0.44497226
   0.57621295  0.57643016  0.38964737
   0.58741095  0.58737748  0.44638776
   0.67065333  0.67056380  0.45190078
   0.49302328  0.74042583  0.38862267
   0.57701243  0.82645073  0.38624283
   0.58840164  0.83770065  0.45333149
   0.67218032  0.92180000  0.45357025
   0.74464681  0.99358828  0.38713437
   0.82801386  0.07734214  0.38719548
   0.83926830  0.08850630  0.45282049
   0.92296497  0.17193319  0.45287332
   0.74819716  0.24051261  0.39276400
   0.82873858  0.32502135  0.38942641
   0.83747477  0.33873945  0.45165879
   0.92203564  0.42219850  0.45349172
   0.74027430  0.49308927  0.38865111
   0.82637490  0.57704562  0.38625995
   0.83782294  0.58829486  0.45332442
   0.92197192  0.67204540  0.45355199
   0.74318778  0.74319792  0.38573260
   0.82735456  0.82732646  0.38591615
   0.83861627  0.83846381  0.45402783
   0.92167196  0.92159070  0.45477041
unknown system                          
           1
     9.775936   -0.040352    0.029685
     4.859608    8.483912    0.030135
     0.152193    0.090414   49.726386
   C 
  62
Direct configuration=    12
   0.99479955  0.99483785  0.38526788
   0.07814695  0.07824724  0.38598194
   0.08923908  0.08922123  0.45405251
   0.17350778  0.17344954  0.45424883
   0.99460486  0.24442749  0.38644837
   0.07887675  0.32823937  0.38666182
   0.09034701  0.33960910  0.45372488
   0.17660857  0.42347952  0.45133531
   0.99450563  0.49440082  0.38650964
   0.07918776  0.57781013  0.38834545
   0.08775181  0.59161041  0.45057384
   0.16831324  0.67625435  0.44723513
   0.99344006  0.74461372  0.38715323
   0.07734088  0.82813501  0.38721319
   0.08850962  0.83921850  0.45276821
   0.17198330  0.92316435  0.45283702
   0.24434214  0.99472359  0.38642899
   0.32817915  0.07895253  0.38665340
   0.33968308  0.09023419  0.45374175
   0.42357550  0.17643577  0.45136318
   0.24595636  0.24599952  0.38806639
   0.32922925  0.32922847  0.39356665
   0.34049282  0.34024766  0.45034123
   0.24287809  0.49680648  0.39500457
   0.30880682  0.59139901  0.40481354
   0.32515542  0.60807628  0.43511582
   0.41975459  0.67383051  0.44495760
   0.24035455  0.74834259  0.39271102
   0.32488416  0.82898845  0.38938270
   0.33879348  0.83742377  0.45164609
   0.42224042  0.92202871  0.45350359
   0.49436453  0.99453484  0.38649696
   0.57781336  0.07913988  0.38835316
   0.59172128  0.08757639  0.45061763
   0.67625132  0.16822037  0.44728806
   0.49685059  0.24273375  0.39504101
   0.59145007  0.30848817  0.40488278
   0.60780048  0.32516431  0.43518504
   0.67372851  0.41975648  0.44499401
   0.57611258  0.57631561  0.38965843
   0.58737720  0.58733599  0.44643250
   0.67064907  0.67056372  0.45193423