units           metal
atom_style      atomic
boundary        p p p
processors		  * * 1
read_data		    V0.data
Reading data file ...
  triclinic box = (0 0 0) to (9.8543251 8.5338058 49.981228) with tilt (4.9251584 4.447365e-06 3.5155761e-06)
WARNING: Triclinic box skew is large. LAMMPS will run inefficiently. (src/domain.cpp:220)
  1 by 1 by 1 MPI processor grid
  reading atoms ...
  32 atoms
  read_data CPU = 0.007 seconds
mass            1 12.011

# Define potentials
pair_style      airebo 3.0
pair_coeff      * * CH.airebo C
Reading airebo potential file CH.airebo with DATE: 2011-10-25


# Variable
variable        thermofrq equal 10
variable        Nloop equal 100     # number of loop to run
variable        binding equal pe


# Output
thermo          ${thermofrq}
thermo          10
thermo_style    custom step temp pe lx ly lz pxx pyy pzz fmax fnorm
thermo_modify   line one format float %20.16g
thermo_modify   flush yes norm no lost warn

# Minimize the system in loops
timestep        1.0e-3
variable        nr loop ${Nloop}
variable        nr loop 100
label           loopmin

# Minimize the with cg + box/relax
  fix             frb all box/relax tri 0.0 couple none
  min_style       cg
  min_modify      line quadratic
  minimize        0.0 1.0e-3 10000 10000
Neighbor list info ...
  update: every = 1 steps, delay = 0 steps, check = yes
  max neighbors/atom: 2000, page size: 100000
  master list distance cutoff = 12.2
  ghost atom cutoff = 12.2
  binsize = 6.1, bins = 3 2 9
  1 neighbor lists, perpetual/occasional/extra = 1 0 0
  (1) pair airebo, perpetual
      attributes: full, newton on, ghost
      pair build: full/bin/ghost
      stencil: full/ghost/bin/3d
      bin: standard
WARNING: Energy due to 6 extra global DOFs will be included in minimizer energies
 (src/min.cpp:225)
Per MPI rank memory allocation (min/avg/max) = 5.023 | 5.023 | 5.023 Mbytes
   Step          Temp          PotEng           Lx             Ly             Lz            Pxx            Pyy            Pzz            Fmax          Fnorm     
         0                     0   -236.9562439287338    9.854325100500001         8.5338058206        49.9812277894   -14236.28226239567    -14243.2546543372 -5.546857821476566e-14  0.02068877815502894    0.118405834123332
        10                     0   -237.0288996621315    9.844475907105201    8.525272014779393        49.9812277894   -13531.20237011005   -13538.73921409341 -5.520614208785998e-14  0.03790042836547073   0.2151469693583469
        20                     0   -237.0975266156946    9.834627335346271    8.516738208958788        49.9812277894   -12816.32859554879   -12824.17589354418 -5.493199420795291e-14  0.05506340326223687   0.3120326778640835
        30                     0   -237.1621029575472     9.82477924086087    8.508204403138182        49.9812277894   -12091.57980149808   -12099.46802601264 -5.464764777327269e-14   0.0720211858543315   0.4078808198848814
        40                     0   -237.2226093725398    9.814931494528318    8.499670597317575        49.9812277894    -11356.8364934244   -11364.56301913099 -5.435048641719002e-14  0.08865930254357665   0.5019731986329822
        50                     0   -237.2790300724721    9.805083972206383     8.49113679149697        49.9812277894   -10612.01350703112   -10619.38795853902 -5.404132886573275e-14   0.1048728668715452   0.5936928034195247
        60                     0   -237.3313536683794    9.795236544923416    8.482602985676364        49.9812277894   -9857.042995966462   -9863.917664861669 -5.371722795923421e-14    0.120535948519729   0.6823167583641783
        70                     0   -237.3795740349495    9.785389075196953    8.474069179855757        49.9812277894   -9091.865977467996   -9098.055275716439 -5.337964475075072e-14   0.1354956865257269   0.7669745057285334
        80                     0   -237.4236914276055    9.775541351892373    8.465535374035152        49.9812277894   -8316.381664524049   -8321.734171742692 -5.302700599072606e-14   0.1495633887892497   0.8465945067590165
        90                     0   -237.4637137183321    9.765693189687305    8.457001568214546        49.9812277894   -7530.504623815697   -7534.930097516512 -5.265718897317915e-14   0.1625019860589677   0.9198319612921314
       100                     0   -237.4996585047881    9.755844378324175    8.448467762393939        49.9812277894   -6734.158555118714   -6737.575803415825 -5.226856984933694e-14   0.1740077211874771   0.9849645656498583
       110                     0   -237.5315558484953     9.74599466003254    8.439933956573334        49.9812277894   -5927.286240084448   -5929.649429564931 -5.185879685683872e-14   0.1836809231725227    1.039726791668959
       120                     0   -237.5594521998249    9.736143728714158    8.431400150752728        49.9812277894   -5109.842598664403   -5111.149039256805 -5.142585044529385e-14   0.1909775139385955    1.081035274470838
       130                     0   -237.5834162802064    9.726291211451645    8.422866344932121        49.9812277894   -4281.799187379684   -4282.099855414563 -5.096384287619094e-14   0.1951231404461054     1.10450283803183
       140                     0   -237.6035477143632    9.716437064315954    8.414332908749536        49.9812277894   -3443.187832095838   -3442.602262339645 -5.046535279910037e-14   0.1949465270556179    1.103495609009717
       150                     0   -237.6199924266791    9.706582739215458    8.405801641848967        49.9812277894   -2594.221100059721   -2592.959631501516 -4.991735235465826e-14   0.1885144892451413    1.067068277364834
       160                     0    -237.632980825827    9.696728414114963    8.397273491625702        49.9812277894   -1735.092231990144   -1733.491290625082 -4.929568599172271e-14   0.1721522794633352   0.9744226860581162
       170                     0   -237.6415227516109     9.68843759972124    8.390101901167684        49.9812277894   -1004.670004905925   -1003.182209609341 -4.866008188105445e-14   0.1442543604621406   0.8164931036176181
       180                     0   -237.6462999934542    9.682829154137774    8.385253525250036        49.9812277894   -506.8768430453924   -505.7549627569672 -4.808575095762994e-14   0.1093679073055478   0.6190487004081594
       190                     0   -237.6490349288892     9.67929392991339     8.38220049778106        49.9812277894   -191.7941579712763   -191.0160394899601 -4.750987006172178e-14  0.06911813791551925   0.3913187565893552
       200                     0   -237.6504143175796    9.677473369532752    8.380635608611504        49.9812277894   -29.56074712754458    -28.8449490371928 -4.676338712377663e-14  0.02470903818869882   0.1402907674692961
       210                     0   -237.6506803612197    9.676967252327454    8.380505596016105        49.9812277894   0.2212929669375736    0.197991724707069 -3.60011805287559e-14 3.830690385742998e-05 0.000247364806616414
Loop time of 0.0614514 on 1 procs for 210 steps with 32 atoms

86.5% CPU use with 1 MPI tasks x no OpenMP threads

Minimization stats:
  Stopping criterion = force tolerance
  Energy initial, next-to-last, final = 
     -236.956243928734   -237.65068035928   -237.65068036122
  Force two-norm initial, final = 52.830605 0.00089092661
  Force max component initial, final = 37.3659 0.00057011344
  Final line search alpha, max atom move = 0.04695668 2.6770635e-05
  Iterations, force evaluations = 210 214

MPI task timing breakdown:
Section |  min time  |  avg time  |  max time  |%varavg| %total
---------------------------------------------------------------
Pair    | 0.049631   | 0.049631   | 0.049631   |   0.0 | 80.76
Neigh   | 0          | 0          | 0          |   0.0 |  0.00
Comm    | 0.00038738 | 0.00038738 | 0.00038738 |   0.0 |  0.63
Output  | 0.0097682  | 0.0097682  | 0.0097682  |   0.0 | 15.90
Modify  | 0          | 0          | 0          |   0.0 |  0.00
Other   |            | 0.001665   |            |       |  2.71

Nlocal:             32 ave          32 max          32 min
Histogram: 1 0 0 0 0 0 0 0 0 0
Nghost:            449 ave         449 max         449 min
Histogram: 1 0 0 0 0 0 0 0 0 0
Neighs:              0 ave           0 max           0 min
Histogram: 1 0 0 0 0 0 0 0 0 0
FullNghs:         5568 ave        5568 max        5568 min
Histogram: 1 0 0 0 0 0 0 0 0 0

Total # of neighbors = 5568
Ave neighs/atom = 174
Neighbor list builds = 0
Dangerous builds = 0

# Minimize the with fire
  unfix           frb
  min_style       fire
  minimize        0.0 1.0e-3 10000 10000
  Parameters for fire:
    dmax  delaystep dtgrow dtshrink alpha0 alphashrink tmax tmin   integrator   halfstepback   abcfire  
     0.1     20      1.1     0.5     0.25     0.99      10  0.02 eulerimplicit      yes          no     
Per MPI rank memory allocation (min/avg/max) = 3.898 | 3.898 | 3.898 Mbytes
   Step          Temp          PotEng           Lx             Ly             Lz            Pxx            Pyy            Pzz            Fmax          Fnorm     
       210                     0   -237.6506803612196    9.676967252327454    8.380505596016105        49.9812277894   0.2212929668467303   0.1979917247790255 -3.600159120201915e-14 3.830690390516966e-05 0.0002473648064691857
       211  6.133405108893434e-09   -237.6506803612659    9.676967252327454    8.380505596016105        49.9812277894   0.2357616363678961     0.18352295219068 -3.540638784005986e-14 3.425768962827586e-05 0.0002210892737645003
Loop time of 0.00133588 on 1 procs for 1 steps with 32 atoms

75.8% CPU use with 1 MPI tasks x no OpenMP threads

Minimization stats:
  Stopping criterion = force tolerance
  Energy initial, next-to-last, final = 
      -237.65068036122   -237.65068036122  -237.650680361266
  Force two-norm initial, final = 0.00024736481 0.00022108927
  Force max component initial, final = 3.8306904e-05 3.425769e-05
  Final line search alpha, max atom move = 0 0
  Iterations, force evaluations = 1 2

MPI task timing breakdown:
Section |  min time  |  avg time  |  max time  |%varavg| %total
---------------------------------------------------------------
Pair    | 0.00090821 | 0.00090821 | 0.00090821 |   0.0 | 67.99
Neigh   | 0          | 0          | 0          |   0.0 |  0.00
Comm    | 7.249e-06  | 7.249e-06  | 7.249e-06  |   0.0 |  0.54
Output  | 0          | 0          | 0          |   0.0 |  0.00
Modify  | 0          | 0          | 0          |   0.0 |  0.00
Other   |            | 0.0004204  |            |       | 31.47

Nlocal:             32 ave          32 max          32 min
Histogram: 1 0 0 0 0 0 0 0 0 0
Nghost:            449 ave         449 max         449 min
Histogram: 1 0 0 0 0 0 0 0 0 0
Neighs:              0 ave           0 max           0 min
Histogram: 1 0 0 0 0 0 0 0 0 0
FullNghs:         5952 ave        5952 max        5952 min
Histogram: 1 0 0 0 0 0 0 0 0 0

Total # of neighbors = 5952
Ave neighs/atom = 186
Neighbor list builds = 0
Dangerous builds = 0

next nr
jump ${simname}.in loopmin
jump AIREBO.in loopmin

# Minimize the with cg + box/relax
  fix             frb all box/relax tri 0.0 couple none
  min_style       cg
  min_modify      line quadratic
  minimize        0.0 1.0e-3 10000 10000
WARNING: Energy due to 6 extra global DOFs will be included in minimizer energies
 (src/min.cpp:225)
Per MPI rank memory allocation (min/avg/max) = 5.023 | 5.023 | 5.023 Mbytes
   Step          Temp          PotEng           Lx             Ly             Lz            Pxx            Pyy            Pzz            Fmax          Fnorm     
       211  6.133405108893434e-09   -237.6506803612659    9.676967252327454    8.380505596016105        49.9812277894   0.2357616362981528   0.1835229523046638 -3.540651994667095e-14 3.425768962105952e-05 0.0002210892736982718
       212  6.133405108893434e-09   -237.6506803614679    9.676970034686665    8.380507471707439        49.9812277894 -0.001631148065274362 -0.02622031863344966 -3.517197687375706e-14 3.449177020562007e-05 0.0001940413830089783
Loop time of 0.00141425 on 1 procs for 1 steps with 32 atoms

79.8% CPU use with 1 MPI tasks x no OpenMP threads

Minimization stats:
  Stopping criterion = force tolerance
  Energy initial, next-to-last, final = 
     -237.650680361266  -237.650680361266  -237.650680361468
  Force two-norm initial, final = 0.00086267819 0.00020603239
  Force max component initial, final = 0.00059645706 6.6335252e-05
  Final line search alpha, max atom move = 0.16765666 1.1121547e-05
  Iterations, force evaluations = 1 2

MPI task timing breakdown:
Section |  min time  |  avg time  |  max time  |%varavg| %total
---------------------------------------------------------------
Pair    | 0.0009866  | 0.0009866  | 0.0009866  |   0.0 | 69.76
Neigh   | 0          | 0          | 0          |   0.0 |  0.00
Comm    | 9.165e-06  | 9.165e-06  | 9.165e-06  |   0.0 |  0.65
Output  | 0          | 0          | 0          |   0.0 |  0.00
Modify  | 0          | 0          | 0          |   0.0 |  0.00
Other   |            | 0.0004185  |            |       | 29.59

Nlocal:             32 ave          32 max          32 min
Histogram: 1 0 0 0 0 0 0 0 0 0
Nghost:            449 ave         449 max         449 min
Histogram: 1 0 0 0 0 0 0 0 0 0
Neighs:              0 ave           0 max           0 min
Histogram: 1 0 0 0 0 0 0 0 0 0
FullNghs:         5952 ave        5952 max        5952 min
Histogram: 1 0 0 0 0 0 0 0 0 0

Total # of neighbors = 5952
Ave neighs/atom = 186
Neighbor list builds = 0
Dangerous builds = 0

# Minimize the with fire
  unfix           frb
  min_style       fire
  minimize        0.0 1.0e-3 10000 10000
  Parameters for fire:
    dmax  delaystep dtgrow dtshrink alpha0 alphashrink tmax tmin   integrator   halfstepback   abcfire  
     0.1     20      1.1     0.5     0.25     0.99      10  0.02 eulerimplicit      yes          no     
Per MPI rank memory allocation (min/avg/max) = 3.898 | 3.898 | 3.898 Mbytes
   Step          Temp          PotEng           Lx             Ly             Lz            Pxx            Pyy            Pzz            Fmax          Fnorm     
       212                     0   -237.6506803614681    9.676970034686665    8.380507471707439        49.9812277894 -0.001631153197097906  -0.0262203335038894 -3.537053909417894e-14 3.449177025091735e-05 0.0001940413827691759
       213  3.774109961293459e-09   -237.6506803614974    9.676970034686665    8.380507471707439        49.9812277894  0.01139974352827841 -0.03925128140339412 -3.479066958763578e-14 3.08467227463188e-05 0.0001734301546961575
Loop time of 0.00127571 on 1 procs for 1 steps with 32 atoms

75.9% CPU use with 1 MPI tasks x no OpenMP threads

Minimization stats:
  Stopping criterion = force tolerance
  Energy initial, next-to-last, final = 
     -237.650680361468  -237.650680361468  -237.650680361497
  Force two-norm initial, final = 0.00019404138 0.00017343015
  Force max component initial, final = 3.449177e-05 3.0846723e-05
  Final line search alpha, max atom move = 0 0
  Iterations, force evaluations = 1 2

MPI task timing breakdown:
Section |  min time  |  avg time  |  max time  |%varavg| %total
---------------------------------------------------------------
Pair    | 0.0008503  | 0.0008503  | 0.0008503  |   0.0 | 66.65
Neigh   | 0          | 0          | 0          |   0.0 |  0.00
Comm    | 7.241e-06  | 7.241e-06  | 7.241e-06  |   0.0 |  0.57
Output  | 0          | 0          | 0          |   0.0 |  0.00
Modify  | 0          | 0          | 0          |   0.0 |  0.00
Other   |            | 0.0004182  |            |       | 32.78

Nlocal:             32 ave          32 max          32 min
Histogram: 1 0 0 0 0 0 0 0 0 0
Nghost:            449 ave         449 max         449 min
Histogram: 1 0 0 0 0 0 0 0 0 0
Neighs:              0 ave           0 max           0 min
Histogram: 1 0 0 0 0 0 0 0 0 0
FullNghs:         5952 ave        5952 max        5952 min
Histogram: 1 0 0 0 0 0 0 0 0 0

Total # of neighbors = 5952
Ave neighs/atom = 186
Neighbor list builds = 0
Dangerous builds = 0

next nr
jump ${simname}.in loopmin
jump AIREBO.in loopmin

# Minimize the with cg + box/relax
  fix             frb all box/relax tri 0.0 couple none
  min_style       cg
  min_modify      line quadratic
  minimize        0.0 1.0e-3 10000 10000
WARNING: Energy due to 6 extra global DOFs will be included in minimizer energies
 (src/min.cpp:225)
Per MPI rank memory allocation (min/avg/max) = 5.023 | 5.023 | 5.023 Mbytes
   Step          Temp          PotEng           Lx             Ly             Lz            Pxx            Pyy            Pzz            Fmax          Fnorm     
       213  3.774109961293459e-09   -237.6506803614975    9.676970034686665    8.380507471707439        49.9812277894  0.01139974357464054 -0.03925128143964829 -3.479034912585369e-14 3.084672273571615e-05 0.0001734301543859813
       214  3.774109961293459e-09   -237.6506803615566    9.676970846197364     8.38050505188184        49.9812277894  0.01689334846196949   0.1344143568696856 -3.342890153470718e-14 3.313143170591282e-05 0.0001866642310671533
Loop time of 0.0014645 on 1 procs for 1 steps with 32 atoms

74.4% CPU use with 1 MPI tasks x no OpenMP threads

Minimization stats:
  Stopping criterion = force tolerance
  Energy initial, next-to-last, final = 
     -237.650680361497  -237.650680361497  -237.650680361557
  Force two-norm initial, final = 0.0002034526 0.00039034212
  Force max component initial, final = 9.9302515e-05 0.00034005717
  Final line search alpha, max atom move = 1 0.00034005717
  Iterations, force evaluations = 1 2

MPI task timing breakdown:
Section |  min time  |  avg time  |  max time  |%varavg| %total
---------------------------------------------------------------
Pair    | 0.00096758 | 0.00096758 | 0.00096758 |   0.0 | 66.07
Neigh   | 0          | 0          | 0          |   0.0 |  0.00
Comm    | 7.349e-06  | 7.349e-06  | 7.349e-06  |   0.0 |  0.50
Output  | 0          | 0          | 0          |   0.0 |  0.00
Modify  | 0          | 0          | 0          |   0.0 |  0.00
Other   |            | 0.0004896  |            |       | 33.43

Nlocal:             32 ave          32 max          32 min
Histogram: 1 0 0 0 0 0 0 0 0 0
Nghost:            449 ave         449 max         449 min
Histogram: 1 0 0 0 0 0 0 0 0 0
Neighs:              0 ave           0 max           0 min
Histogram: 1 0 0 0 0 0 0 0 0 0
FullNghs:         5952 ave        5952 max        5952 min
Histogram: 1 0 0 0 0 0 0 0 0 0

Total # of neighbors = 5952
Ave neighs/atom = 186
Neighbor list builds = 0
Dangerous builds = 0

# Minimize the with fire
  unfix           frb
  min_style       fire
  minimize        0.0 1.0e-3 10000 10000
  Parameters for fire:
    dmax  delaystep dtgrow dtshrink alpha0 alphashrink tmax tmin   integrator   halfstepback   abcfire  
     0.1     20      1.1     0.5     0.25     0.99      10  0.02 eulerimplicit      yes          no     
Per MPI rank memory allocation (min/avg/max) = 3.898 | 3.898 | 3.898 Mbytes
   Step          Temp          PotEng           Lx             Ly             Lz            Pxx            Pyy            Pzz            Fmax          Fnorm     
       214                     0   -237.6506803615567    9.676970846197364     8.38050505188184        49.9812277894  0.01689334831255601   0.1344143451840088 -3.362271273075789e-14 3.31314316714959e-05 0.0001866642311259418
       215  3.492593486812097e-09   -237.6506803615835    9.676970846197364     8.38050505188184        49.9812277894  0.02946320044799368     0.12184443104319 -3.308416362251026e-14 2.963413400380865e-05 0.0001668365675700448
Loop time of 0.00142512 on 1 procs for 1 steps with 32 atoms

75.5% CPU use with 1 MPI tasks x no OpenMP threads

Minimization stats:
  Stopping criterion = force tolerance
  Energy initial, next-to-last, final = 
     -237.650680361557  -237.650680361557  -237.650680361584
  Force two-norm initial, final = 0.00018666423 0.00016683657
  Force max component initial, final = 3.3131432e-05 2.9634134e-05
  Final line search alpha, max atom move = 0 0
  Iterations, force evaluations = 1 2

MPI task timing breakdown:
Section |  min time  |  avg time  |  max time  |%varavg| %total
---------------------------------------------------------------
Pair    | 0.0009711  | 0.0009711  | 0.0009711  |   0.0 | 68.14
Neigh   | 0          | 0          | 0          |   0.0 |  0.00
Comm    | 7.974e-06  | 7.974e-06  | 7.974e-06  |   0.0 |  0.56
Output  | 0          | 0          | 0          |   0.0 |  0.00
Modify  | 0          | 0          | 0          |   0.0 |  0.00
Other   |            | 0.000446   |            |       | 31.30

Nlocal:             32 ave          32 max          32 min
Histogram: 1 0 0 0 0 0 0 0 0 0
Nghost:            449 ave         449 max         449 min
Histogram: 1 0 0 0 0 0 0 0 0 0
Neighs:              0 ave           0 max           0 min
Histogram: 1 0 0 0 0 0 0 0 0 0
FullNghs:         5952 ave        5952 max        5952 min
Histogram: 1 0 0 0 0 0 0 0 0 0

Total # of neighbors = 5952
Ave neighs/atom = 186
Neighbor list builds = 0
Dangerous builds = 0

next nr
jump ${simname}.in loopmin
jump AIREBO.in loopmin

# Minimize the with cg + box/relax
  fix             frb all box/relax tri 0.0 couple none
  min_style       cg
  min_modify      line quadratic
  minimize        0.0 1.0e-3 10000 10000
WARNING: Energy due to 6 extra global DOFs will be included in minimizer energies
 (src/min.cpp:225)
Per MPI rank memory allocation (min/avg/max) = 5.023 | 5.023 | 5.023 Mbytes
   Step          Temp          PotEng           Lx             Ly             Lz            Pxx            Pyy            Pzz            Fmax          Fnorm     
       215  3.492593486812097e-09   -237.6506803615835    9.676970846197364     8.38050505188184        49.9812277894  0.02946320031745094   0.1218444310948012 -3.308393082550119e-14 2.963413398171522e-05 0.0001668365675772546
       216  3.492593486812097e-09   -237.6506803616189    9.676971251636274    8.380506503932997        49.9812277894 -0.01223982628717874 -0.02459928496998966 -3.283650150533626e-14 2.248463853549154e-05 0.0001261527464574466
Loop time of 0.00140259 on 1 procs for 1 steps with 32 atoms

77.4% CPU use with 1 MPI tasks x no OpenMP threads

Minimization stats:
  Stopping criterion = force tolerance
  Energy initial, next-to-last, final = 
     -237.650680361583  -237.650680361583  -237.650680361619
  Force two-norm initial, final = 0.00035855138 0.00014735228
  Force max component initial, final = 0.00030825621 6.2234167e-05
  Final line search alpha, max atom move = 0.32440547 2.0189104e-05
  Iterations, force evaluations = 1 2

MPI task timing breakdown:
Section |  min time  |  avg time  |  max time  |%varavg| %total
---------------------------------------------------------------
Pair    | 0.00096503 | 0.00096503 | 0.00096503 |   0.0 | 68.80
Neigh   | 0          | 0          | 0          |   0.0 |  0.00
Comm    | 7.759e-06  | 7.759e-06  | 7.759e-06  |   0.0 |  0.55
Output  | 0          | 0          | 0          |   0.0 |  0.00
Modify  | 0          | 0          | 0          |   0.0 |  0.00
Other   |            | 0.0004298  |            |       | 30.64

Nlocal:             32 ave          32 max          32 min
Histogram: 1 0 0 0 0 0 0 0 0 0
Nghost:            449 ave         449 max         449 min
Histogram: 1 0 0 0 0 0 0 0 0 0
Neighs:              0 ave           0 max           0 min
Histogram: 1 0 0 0 0 0 0 0 0 0
FullNghs:         5952 ave        5952 max        5952 min
Histogram: 1 0 0 0 0 0 0 0 0 0

Total # of neighbors = 5952
Ave neighs/atom = 186
Neighbor list builds = 0
Dangerous builds = 0

# Minimize the with fire
  unfix           frb
  min_style       fire
  minimize        0.0 1.0e-3 10000 10000
  Parameters for fire:
    dmax  delaystep dtgrow dtshrink alpha0 alphashrink tmax tmin   integrator   halfstepback   abcfire  
     0.1     20      1.1     0.5     0.25     0.99      10  0.02 eulerimplicit      yes          no     
Per MPI rank memory allocation (min/avg/max) = 3.898 | 3.898 | 3.898 Mbytes
   Step          Temp          PotEng           Lx             Ly             Lz            Pxx            Pyy            Pzz            Fmax          Fnorm     
       216                     0   -237.6506803616188    9.676971251636274    8.380506503932997        49.9812277894  -0.0122398262185392 -0.02459929587407006 -3.301677148438505e-14 2.248463836340697e-05 0.000126152746267776
       217  1.595215083421181e-09   -237.6506803616307    9.676971251636274    8.380506503932997        49.9812277894 -0.003744535105834504 -0.03309460909741646 -3.249215536409901e-14 2.01173332213811e-05 0.0001127530721358853
Loop time of 0.00106583 on 1 procs for 1 steps with 32 atoms

73.3% CPU use with 1 MPI tasks x no OpenMP threads

Minimization stats:
  Stopping criterion = force tolerance
  Energy initial, next-to-last, final = 
     -237.650680361619  -237.650680361619  -237.650680361631
  Force two-norm initial, final = 0.00012615275 0.00011275307
  Force max component initial, final = 2.2484638e-05 2.0117333e-05
  Final line search alpha, max atom move = 0 0
  Iterations, force evaluations = 1 2

MPI task timing breakdown:
Section |  min time  |  avg time  |  max time  |%varavg| %total
---------------------------------------------------------------
Pair    | 0.00068675 | 0.00068675 | 0.00068675 |   0.0 | 64.43
Neigh   | 0          | 0          | 0          |   0.0 |  0.00
Comm    | 6.347e-06  | 6.347e-06  | 6.347e-06  |   0.0 |  0.60
Output  | 0          | 0          | 0          |   0.0 |  0.00
Modify  | 0          | 0          | 0          |   0.0 |  0.00
Other   |            | 0.0003727  |            |       | 34.97

Nlocal:             32 ave          32 max          32 min
Histogram: 1 0 0 0 0 0 0 0 0 0
Nghost:            449 ave         449 max         449 min
Histogram: 1 0 0 0 0 0 0 0 0 0
Neighs:              0 ave           0 max           0 min
Histogram: 1 0 0 0 0 0 0 0 0 0
FullNghs:         5952 ave        5952 max        5952 min
Histogram: 1 0 0 0 0 0 0 0 0 0

Total # of neighbors = 5952
Ave neighs/atom = 186
Neighbor list builds = 0
Dangerous builds = 0

next nr
jump ${simname}.in loopmin
jump AIREBO.in loopmin

# Minimize the with cg + box/relax
  fix             frb all box/relax tri 0.0 couple none
  min_style       cg
  min_modify      line quadratic
  minimize        0.0 1.0e-3 10000 10000
WARNING: Energy due to 6 extra global DOFs will be included in minimizer energies
 (src/min.cpp:225)
Per MPI rank memory allocation (min/avg/max) = 5.023 | 5.023 | 5.023 Mbytes
   Step          Temp          PotEng           Lx             Ly             Lz            Pxx            Pyy            Pzz            Fmax          Fnorm     
       217  1.595215083421181e-09   -237.6506803616308    9.676971251636274    8.380506503932997        49.9812277894 -0.003744534935526958 -0.03309460901041886 -3.249169892821978e-14 2.011733311513275e-05 0.000112753071966582
       218  1.595215083421181e-09   -237.6506803616489    9.676971111664397    8.380505432583847        49.9812277894  0.03449228976786794  0.05310357757096031 -3.184125310638126e-14 2.037700033175049e-05 0.0001163856475921082
Loop time of 0.00134282 on 1 procs for 1 steps with 32 atoms

75.6% CPU use with 1 MPI tasks x no OpenMP threads

Minimization stats:
  Stopping criterion = force tolerance
  Energy initial, next-to-last, final = 
     -237.650680361631  -237.650680361631  -237.650680361649
  Force two-norm initial, final = 0.00014483364 0.00020005983
  Force max component initial, final = 8.3726628e-05 0.00013434763
  Final line search alpha, max atom move = 1 0.00013434763
  Iterations, force evaluations = 1 2

MPI task timing breakdown:
Section |  min time  |  avg time  |  max time  |%varavg| %total
---------------------------------------------------------------
Pair    | 0.00089682 | 0.00089682 | 0.00089682 |   0.0 | 66.79
Neigh   | 0          | 0          | 0          |   0.0 |  0.00
Comm    | 7.459e-06  | 7.459e-06  | 7.459e-06  |   0.0 |  0.56
Output  | 0          | 0          | 0          |   0.0 |  0.00
Modify  | 0          | 0          | 0          |   0.0 |  0.00
Other   |            | 0.0004385  |            |       | 32.66

Nlocal:             32 ave          32 max          32 min
Histogram: 1 0 0 0 0 0 0 0 0 0
Nghost:            449 ave         449 max         449 min
Histogram: 1 0 0 0 0 0 0 0 0 0
Neighs:              0 ave           0 max           0 min
Histogram: 1 0 0 0 0 0 0 0 0 0
FullNghs:         5952 ave        5952 max        5952 min
Histogram: 1 0 0 0 0 0 0 0 0 0

Total # of neighbors = 5952
Ave neighs/atom = 186
Neighbor list builds = 0
Dangerous builds = 0

# Minimize the with fire
  unfix           frb
  min_style       fire
  minimize        0.0 1.0e-3 10000 10000
  Parameters for fire:
    dmax  delaystep dtgrow dtshrink alpha0 alphashrink tmax tmin   integrator   halfstepback   abcfire  
     0.1     20      1.1     0.5     0.25     0.99      10  0.02 eulerimplicit      yes          no     
Per MPI rank memory allocation (min/avg/max) = 3.898 | 3.898 | 3.898 Mbytes
   Step          Temp          PotEng           Lx             Ly             Lz            Pxx            Pyy            Pzz            Fmax          Fnorm     
       218                     0   -237.6506803616488    9.676971111664397    8.380505432583847        49.9812277894  0.03449228958299062   0.0531035728791056 -3.201678311962782e-14 2.037700036916501e-05 0.0001163856478754908
       219  1.357765238376524e-09    -237.650680361659    9.676971111664397    8.380505432583847        49.9812277894  0.04219565788236508  0.04540018373892578 -3.151536696800149e-14 1.823206922679788e-05 0.0001040234478433492
Loop time of 0.00153768 on 1 procs for 1 steps with 32 atoms

74.3% CPU use with 1 MPI tasks x no OpenMP threads

Minimization stats:
  Stopping criterion = force tolerance
  Energy initial, next-to-last, final = 
     -237.650680361649  -237.650680361649  -237.650680361659
  Force two-norm initial, final = 0.00011638565 0.00010402345
  Force max component initial, final = 2.0377e-05 1.8232069e-05
  Final line search alpha, max atom move = 0 0
  Iterations, force evaluations = 1 2

MPI task timing breakdown:
Section |  min time  |  avg time  |  max time  |%varavg| %total
---------------------------------------------------------------
Pair    | 0.0010265  | 0.0010265  | 0.0010265  |   0.0 | 66.75
Neigh   | 0          | 0          | 0          |   0.0 |  0.00
Comm    | 7.75e-06   | 7.75e-06   | 7.75e-06   |   0.0 |  0.50
Output  | 0          | 0          | 0          |   0.0 |  0.00
Modify  | 0          | 0          | 0          |   0.0 |  0.00
Other   |            | 0.0005035  |            |       | 32.74

Nlocal:             32 ave          32 max          32 min
Histogram: 1 0 0 0 0 0 0 0 0 0
Nghost:            449 ave         449 max         449 min
Histogram: 1 0 0 0 0 0 0 0 0 0
Neighs:              0 ave           0 max           0 min
Histogram: 1 0 0 0 0 0 0 0 0 0
FullNghs:         5952 ave        5952 max        5952 min
Histogram: 1 0 0 0 0 0 0 0 0 0

Total # of neighbors = 5952
Ave neighs/atom = 186
Neighbor list builds = 0
Dangerous builds = 0

next nr
jump ${simname}.in loopmin
jump AIREBO.in loopmin

# Minimize the with cg + box/relax
  fix             frb all box/relax tri 0.0 couple none
  min_style       cg
  min_modify      line quadratic
  minimize        0.0 1.0e-3 10000 10000
WARNING: Energy due to 6 extra global DOFs will be included in minimizer energies
 (src/min.cpp:225)
Per MPI rank memory allocation (min/avg/max) = 5.023 | 5.023 | 5.023 Mbytes
   Step          Temp          PotEng           Lx             Ly             Lz            Pxx            Pyy            Pzz            Fmax          Fnorm     
       219  1.357765238376524e-09   -237.6506803616589    9.676971111664397    8.380505432583847        49.9812277894  0.04219565796701367  0.04540018376163982 -3.151538397985633e-14 1.82320692752036e-05 0.0001040234479183714
       220  1.357765238376524e-09   -237.6506803616672    9.676971743930174    8.380506021726214        49.9812277894 -0.01018011977016433 -0.02082969899084184 -3.126527789144661e-14 1.658362753620413e-05 9.269056777499406e-05
Loop time of 0.0011849 on 1 procs for 1 steps with 32 atoms

60.2% CPU use with 1 MPI tasks x no OpenMP threads

Minimization stats:
  Stopping criterion = force tolerance
  Energy initial, next-to-last, final = 
     -237.650680361659  -237.650680361659  -237.650680361667
  Force two-norm initial, final = 0.00018963212 0.00011475836
  Force max component initial, final = 0.00011485867 5.2697417e-05
  Final line search alpha, max atom move = 0.87063517 4.5880225e-05
  Iterations, force evaluations = 1 2

MPI task timing breakdown:
Section |  min time  |  avg time  |  max time  |%varavg| %total
---------------------------------------------------------------
Pair    | 0.00061254 | 0.00061254 | 0.00061254 |   0.0 | 51.70
Neigh   | 0          | 0          | 0          |   0.0 |  0.00
Comm    | 5.486e-06  | 5.486e-06  | 5.486e-06  |   0.0 |  0.46
Output  | 0          | 0          | 0          |   0.0 |  0.00
Modify  | 0          | 0          | 0          |   0.0 |  0.00
Other   |            | 0.0005669  |            |       | 47.84

Nlocal:             32 ave          32 max          32 min
Histogram: 1 0 0 0 0 0 0 0 0 0
Nghost:            449 ave         449 max         449 min
Histogram: 1 0 0 0 0 0 0 0 0 0
Neighs:              0 ave           0 max           0 min
Histogram: 1 0 0 0 0 0 0 0 0 0
FullNghs:         5952 ave        5952 max        5952 min
Histogram: 1 0 0 0 0 0 0 0 0 0

Total # of neighbors = 5952
Ave neighs/atom = 186
Neighbor list builds = 0
Dangerous builds = 0

# Minimize the with fire
  unfix           frb
  min_style       fire
  minimize        0.0 1.0e-3 10000 10000
  Parameters for fire:
    dmax  delaystep dtgrow dtshrink alpha0 alphashrink tmax tmin   integrator   halfstepback   abcfire  
     0.1     20      1.1     0.5     0.25     0.99      10  0.02 eulerimplicit      yes          no     
Per MPI rank memory allocation (min/avg/max) = 3.898 | 3.898 | 3.898 Mbytes
   Step          Temp          PotEng           Lx             Ly             Lz            Pxx            Pyy            Pzz            Fmax          Fnorm     
       220                     0   -237.6506803616671    9.676971743930174    8.380506021726214        49.9812277894 -0.01018012003219029 -0.02082970311474112 -3.143288611146694e-14 1.658362763956589e-05 9.269056788762491e-05
       221  8.611859056558287e-10   -237.6506803616739    9.676971743930174    8.380506021726214        49.9812277894 -0.003924194625052194 -0.02708564029671032 -3.094538197946928e-14 1.484081732683329e-05 8.284546811200472e-05
Loop time of 0.00130698 on 1 procs for 1 steps with 32 atoms

78.5% CPU use with 1 MPI tasks x no OpenMP threads

Minimization stats:
  Stopping criterion = force tolerance
  Energy initial, next-to-last, final = 
     -237.650680361667  -237.650680361667  -237.650680361674
  Force two-norm initial, final = 9.2690568e-05 8.2845468e-05
  Force max component initial, final = 1.6583628e-05 1.4840817e-05
  Final line search alpha, max atom move = 0 0
  Iterations, force evaluations = 1 2

MPI task timing breakdown:
Section |  min time  |  avg time  |  max time  |%varavg| %total
---------------------------------------------------------------
Pair    | 0.00092171 | 0.00092171 | 0.00092171 |   0.0 | 70.52
Neigh   | 0          | 0          | 0          |   0.0 |  0.00
Comm    | 7.152e-06  | 7.152e-06  | 7.152e-06  |   0.0 |  0.55
Output  | 0          | 0          | 0          |   0.0 |  0.00
Modify  | 0          | 0          | 0          |   0.0 |  0.00
Other   |            | 0.0003781  |            |       | 28.93

Nlocal:             32 ave          32 max          32 min
Histogram: 1 0 0 0 0 0 0 0 0 0
Nghost:            449 ave         449 max         449 min
Histogram: 1 0 0 0 0 0 0 0 0 0
Neighs:              0 ave           0 max           0 min
Histogram: 1 0 0 0 0 0 0 0 0 0
FullNghs:         5952 ave        5952 max        5952 min
Histogram: 1 0 0 0 0 0 0 0 0 0

Total # of neighbors = 5952
Ave neighs/atom = 186
Neighbor list builds = 0
Dangerous builds = 0

next nr
jump ${simname}.in loopmin
jump AIREBO.in loopmin

# Minimize the with cg + box/relax
  fix             frb all box/relax tri 0.0 couple none
  min_style       cg
  min_modify      line quadratic
  minimize        0.0 1.0e-3 10000 10000
WARNING: Energy due to 6 extra global DOFs will be included in minimizer energies
 (src/min.cpp:225)
Per MPI rank memory allocation (min/avg/max) = 5.023 | 5.023 | 5.023 Mbytes
   Step          Temp          PotEng           Lx             Ly             Lz            Pxx            Pyy            Pzz            Fmax          Fnorm     
       221  8.611859056558287e-10    -237.650680361674    9.676971743930174    8.380506021726214        49.9812277894 -0.00392419488458837 -0.02708564024760927 -3.094546829421692e-14 1.484081741454091e-05 8.284546808201992e-05
       222  8.611859056558287e-10   -237.6506803616837    9.676971620882815    8.380505286211022        49.9812277894  0.02349495256513071  0.03335926674091842 -3.043694093892145e-14 1.519127489513217e-05 8.677993028385516e-05
Loop time of 0.00122061 on 1 procs for 1 steps with 32 atoms

71.4% CPU use with 1 MPI tasks x no OpenMP threads

Minimization stats:
  Stopping criterion = force tolerance
  Energy initial, next-to-last, final = 
     -237.650680361674  -237.650680361674  -237.650680361684
  Force two-norm initial, final = 0.00011368314 0.00013650217
  Force max component initial, final = 6.8524429e-05 8.4396169e-05
  Final line search alpha, max atom move = 1 8.4396169e-05
  Iterations, force evaluations = 1 2

MPI task timing breakdown:
Section |  min time  |  avg time  |  max time  |%varavg| %total
---------------------------------------------------------------
Pair    | 0.0007555  | 0.0007555  | 0.0007555  |   0.0 | 61.90
Neigh   | 0          | 0          | 0          |   0.0 |  0.00
Comm    | 7.081e-06  | 7.081e-06  | 7.081e-06  |   0.0 |  0.58
Output  | 0          | 0          | 0          |   0.0 |  0.00
Modify  | 0          | 0          | 0          |   0.0 |  0.00
Other   |            | 0.000458   |            |       | 37.52

Nlocal:             32 ave          32 max          32 min
Histogram: 1 0 0 0 0 0 0 0 0 0
Nghost:            449 ave         449 max         449 min
Histogram: 1 0 0 0 0 0 0 0 0 0
Neighs:              0 ave           0 max           0 min
Histogram: 1 0 0 0 0 0 0 0 0 0
FullNghs:         5952 ave        5952 max        5952 min
Histogram: 1 0 0 0 0 0 0 0 0 0

Total # of neighbors = 5952
Ave neighs/atom = 186
Neighbor list builds = 0
Dangerous builds = 0

# Minimize the with fire
  unfix           frb
  min_style       fire
  minimize        0.0 1.0e-3 10000 10000
  Parameters for fire:
    dmax  delaystep dtgrow dtshrink alpha0 alphashrink tmax tmin   integrator   halfstepback   abcfire  
     0.1     20      1.1     0.5     0.25     0.99      10  0.02 eulerimplicit      yes          no     
Per MPI rank memory allocation (min/avg/max) = 3.898 | 3.898 | 3.898 Mbytes
   Step          Temp          PotEng           Lx             Ly             Lz            Pxx            Pyy            Pzz            Fmax          Fnorm     
       222                     0   -237.6506803616837    9.676971620882815    8.380505286211022        49.9812277894  0.02349495261041904   0.0333592638893604 -3.059958853475086e-14 1.519127489257865e-05 8.677993038970998e-05
       223  7.548565424040079e-10   -237.6506803616894    9.676971620882815    8.380505286211022        49.9812277894  0.02922731527249163  0.02762689019584348 -3.013218466748192e-14 1.35952281541396e-05 7.756264909978059e-05
Loop time of 0.00103073 on 1 procs for 1 steps with 32 atoms

71.7% CPU use with 1 MPI tasks x no OpenMP threads

Minimization stats:
  Stopping criterion = force tolerance
  Energy initial, next-to-last, final = 
     -237.650680361684  -237.650680361684  -237.650680361689
  Force two-norm initial, final = 8.677993e-05 7.7562649e-05
  Force max component initial, final = 1.5191275e-05 1.3595228e-05
  Final line search alpha, max atom move = 0 0
  Iterations, force evaluations = 1 2

MPI task timing breakdown:
Section |  min time  |  avg time  |  max time  |%varavg| %total
---------------------------------------------------------------
Pair    | 0.00064308 | 0.00064308 | 0.00064308 |   0.0 | 62.39
Neigh   | 0          | 0          | 0          |   0.0 |  0.00
Comm    | 5.327e-06  | 5.327e-06  | 5.327e-06  |   0.0 |  0.52
Output  | 0          | 0          | 0          |   0.0 |  0.00
Modify  | 0          | 0          | 0          |   0.0 |  0.00
Other   |            | 0.0003823  |            |       | 37.09

Nlocal:             32 ave          32 max          32 min
Histogram: 1 0 0 0 0 0 0 0 0 0
Nghost:            449 ave         449 max         449 min
Histogram: 1 0 0 0 0 0 0 0 0 0
Neighs:              0 ave           0 max           0 min
Histogram: 1 0 0 0 0 0 0 0 0 0
FullNghs:         5952 ave        5952 max        5952 min
Histogram: 1 0 0 0 0 0 0 0 0 0

Total # of neighbors = 5952
Ave neighs/atom = 186
Neighbor list builds = 0
Dangerous builds = 0

next nr
jump ${simname}.in loopmin
jump AIREBO.in loopmin

# Minimize the with cg + box/relax
  fix             frb all box/relax tri 0.0 couple none
  min_style       cg
  min_modify      line quadratic
  minimize        0.0 1.0e-3 10000 10000
WARNING: Energy due to 6 extra global DOFs will be included in minimizer energies
 (src/min.cpp:225)
Per MPI rank memory allocation (min/avg/max) = 5.023 | 5.023 | 5.023 Mbytes
   Step          Temp          PotEng           Lx             Ly             Lz            Pxx            Pyy            Pzz            Fmax          Fnorm     
       223  7.548565424040079e-10   -237.6506803616895    9.676971620882815    8.380505286211022        49.9812277894  0.02922731490842522  0.02762689020180829 -3.013212451437647e-14 1.359522817512282e-05 7.75626492915697e-05
       224  7.548565424040079e-10   -237.6506803616938     9.67697209920804    8.380505677769897        49.9812277894 -0.009465614075110458 -0.01775905487996843 -2.98767355115566e-14 1.25100335588435e-05 6.979578483366559e-05
Loop time of 0.00109037 on 1 procs for 1 steps with 32 atoms

76.1% CPU use with 1 MPI tasks x no OpenMP threads

Minimization stats:
  Stopping criterion = force tolerance
  Energy initial, next-to-last, final = 
     -237.650680361689  -237.650680361689  -237.650680361694
  Force two-norm initial, final = 0.00012909167 9.0542338e-05
  Force max component initial, final = 7.3942674e-05 4.4928939e-05
  Final line search alpha, max atom move = 1 4.4928939e-05
  Iterations, force evaluations = 1 2

MPI task timing breakdown:
Section |  min time  |  avg time  |  max time  |%varavg| %total
---------------------------------------------------------------
Pair    | 0.00070591 | 0.00070591 | 0.00070591 |   0.0 | 64.74
Neigh   | 0          | 0          | 0          |   0.0 |  0.00
Comm    | 5.534e-06  | 5.534e-06  | 5.534e-06  |   0.0 |  0.51
Output  | 0          | 0          | 0          |   0.0 |  0.00
Modify  | 0          | 0          | 0          |   0.0 |  0.00
Other   |            | 0.0003789  |            |       | 34.75

Nlocal:             32 ave          32 max          32 min
Histogram: 1 0 0 0 0 0 0 0 0 0
Nghost:            449 ave         449 max         449 min
Histogram: 1 0 0 0 0 0 0 0 0 0
Neighs:              0 ave           0 max           0 min
Histogram: 1 0 0 0 0 0 0 0 0 0
FullNghs:         5952 ave        5952 max        5952 min
Histogram: 1 0 0 0 0 0 0 0 0 0

Total # of neighbors = 5952
Ave neighs/atom = 186
Neighbor list builds = 0
Dangerous builds = 0

# Minimize the with fire
  unfix           frb
  min_style       fire
  minimize        0.0 1.0e-3 10000 10000
  Parameters for fire:
    dmax  delaystep dtgrow dtshrink alpha0 alphashrink tmax tmin   integrator   halfstepback   abcfire  
     0.1     20      1.1     0.5     0.25     0.99      10  0.02 eulerimplicit      yes          no     
Per MPI rank memory allocation (min/avg/max) = 3.898 | 3.898 | 3.898 Mbytes
   Step          Temp          PotEng           Lx             Ly             Lz            Pxx            Pyy            Pzz            Fmax          Fnorm     
       224                     0   -237.6506803616938     9.67697209920804    8.380505677769897        49.9812277894 -0.009465614330643654 -0.01775905738414696 -3.003315824306632e-14 1.251003367241932e-05 6.979578467697814e-05
       225  4.88297179487189e-10   -237.6506803616975     9.67697209920804    8.380505677769897        49.9812277894  -0.0047558155880982 -0.02246886258495501 -2.957869265402111e-14 1.119805829785658e-05 6.238273895958288e-05
Loop time of 0.00323541 on 1 procs for 1 steps with 32 atoms

84.5% CPU use with 1 MPI tasks x no OpenMP threads

Minimization stats:
  Stopping criterion = force tolerance
  Energy initial, next-to-last, final = 
     -237.650680361694  -237.650680361694  -237.650680361697
  Force two-norm initial, final = 6.9795785e-05 6.2382739e-05
  Force max component initial, final = 1.2510034e-05 1.1198058e-05
  Final line search alpha, max atom move = 0 0
  Iterations, force evaluations = 1 2

MPI task timing breakdown:
Section |  min time  |  avg time  |  max time  |%varavg| %total
---------------------------------------------------------------
Pair    | 0.0023714  | 0.0023714  | 0.0023714  |   0.0 | 73.30
Neigh   | 0          | 0          | 0          |   0.0 |  0.00
Comm    | 8.442e-06  | 8.442e-06  | 8.442e-06  |   0.0 |  0.26
Output  | 0          | 0          | 0          |   0.0 |  0.00
Modify  | 0          | 0          | 0          |   0.0 |  0.00
Other   |            | 0.0008556  |            |       | 26.44

Nlocal:             32 ave          32 max          32 min
Histogram: 1 0 0 0 0 0 0 0 0 0
Nghost:            449 ave         449 max         449 min
Histogram: 1 0 0 0 0 0 0 0 0 0
Neighs:              0 ave           0 max           0 min
Histogram: 1 0 0 0 0 0 0 0 0 0
FullNghs:         5952 ave        5952 max        5952 min
Histogram: 1 0 0 0 0 0 0 0 0 0

Total # of neighbors = 5952
Ave neighs/atom = 186
Neighbor list builds = 0
Dangerous builds = 0

next nr
jump ${simname}.in loopmin
jump AIREBO.in loopmin

# Minimize the with cg + box/relax
  fix             frb all box/relax tri 0.0 couple none
  min_style       cg
  min_modify      line quadratic
  minimize        0.0 1.0e-3 10000 10000
WARNING: Energy due to 6 extra global DOFs will be included in minimizer energies
 (src/min.cpp:225)
Per MPI rank memory allocation (min/avg/max) = 5.023 | 5.023 | 5.023 Mbytes
   Step          Temp          PotEng           Lx             Ly             Lz            Pxx            Pyy            Pzz            Fmax          Fnorm     
       225  4.88297179487189e-10   -237.6506803616974     9.67697209920804    8.380505677769897        49.9812277894 -0.004755815355435404 -0.02246886259528484 -2.957847946894831e-14 1.119805811045094e-05 6.238273884726045e-05
       226  4.88297179487189e-10   -237.6506803617021    9.676971970729854    8.380505152096173        49.9812277894  0.01750237068876119  0.02173246015530368 -2.916955826844148e-14 1.145452580397777e-05 6.528204628959773e-05
Loop time of 0.00140885 on 1 procs for 1 steps with 32 atoms

78.5% CPU use with 1 MPI tasks x no OpenMP threads

Minimization stats:
  Stopping criterion = force tolerance
  Energy initial, next-to-last, final = 
     -237.650680361697  -237.650680361697  -237.650680361702
  Force two-norm initial, final = 8.9894944e-05 9.7066877e-05
  Force max component initial, final = 5.6844362e-05 5.4981316e-05
  Final line search alpha, max atom move = 1 5.4981316e-05
  Iterations, force evaluations = 1 2

MPI task timing breakdown:
Section |  min time  |  avg time  |  max time  |%varavg| %total
---------------------------------------------------------------
Pair    | 0.00097552 | 0.00097552 | 0.00097552 |   0.0 | 69.24
Neigh   | 0          | 0          | 0          |   0.0 |  0.00
Comm    | 8.008e-06  | 8.008e-06  | 8.008e-06  |   0.0 |  0.57
Output  | 0          | 0          | 0          |   0.0 |  0.00
Modify  | 0          | 0          | 0          |   0.0 |  0.00
Other   |            | 0.0004253  |            |       | 30.19

Nlocal:             32 ave          32 max          32 min
Histogram: 1 0 0 0 0 0 0 0 0 0
Nghost:            449 ave         449 max         449 min
Histogram: 1 0 0 0 0 0 0 0 0 0
Neighs:              0 ave           0 max           0 min
Histogram: 1 0 0 0 0 0 0 0 0 0
FullNghs:         5952 ave        5952 max        5952 min
Histogram: 1 0 0 0 0 0 0 0 0 0

Total # of neighbors = 5952
Ave neighs/atom = 186
Neighbor list builds = 0
Dangerous builds = 0

# Minimize the with fire
  unfix           frb
  min_style       fire
  minimize        0.0 1.0e-3 10000 10000
  Parameters for fire:
    dmax  delaystep dtgrow dtshrink alpha0 alphashrink tmax tmin   integrator   halfstepback   abcfire  
     0.1     20      1.1     0.5     0.25     0.99      10  0.02 eulerimplicit      yes          no     
Per MPI rank memory allocation (min/avg/max) = 3.898 | 3.898 | 3.898 Mbytes
   Step          Temp          PotEng           Lx             Ly             Lz            Pxx            Pyy            Pzz            Fmax          Fnorm     
       226                     0    -237.650680361702    9.676971970729854    8.380505152096173        49.9812277894    0.017502370716866    0.021732458633889 -2.932142779529165e-14   1.145452569562e-05 6.528204641032009e-05
       227  4.271823958487379e-10   -237.6506803617052    9.676971970729854    8.380505152096173        49.9812277894  0.02181447659608213  0.01742034634559835 -2.888317235782167e-14 1.025376792074262e-05 5.834843879343044e-05
Loop time of 0.00136268 on 1 procs for 1 steps with 32 atoms

77.4% CPU use with 1 MPI tasks x no OpenMP threads

Minimization stats:
  Stopping criterion = force tolerance
  Energy initial, next-to-last, final = 
     -237.650680361702  -237.650680361702  -237.650680361705
  Force two-norm initial, final = 6.5282046e-05 5.8348439e-05
  Force max component initial, final = 1.1454526e-05 1.0253768e-05
  Final line search alpha, max atom move = 0 0
  Iterations, force evaluations = 1 2

MPI task timing breakdown:
Section |  min time  |  avg time  |  max time  |%varavg| %total
---------------------------------------------------------------
Pair    | 0.00094265 | 0.00094265 | 0.00094265 |   0.0 | 69.18
Neigh   | 0          | 0          | 0          |   0.0 |  0.00
Comm    | 7.09e-06   | 7.09e-06   | 7.09e-06   |   0.0 |  0.52
Output  | 0          | 0          | 0          |   0.0 |  0.00
Modify  | 0          | 0          | 0          |   0.0 |  0.00
Other   |            | 0.0004129  |            |       | 30.30

Nlocal:             32 ave          32 max          32 min
Histogram: 1 0 0 0 0 0 0 0 0 0
Nghost:            449 ave         449 max         449 min
Histogram: 1 0 0 0 0 0 0 0 0 0
Neighs:              0 ave           0 max           0 min
Histogram: 1 0 0 0 0 0 0 0 0 0
FullNghs:         5952 ave        5952 max        5952 min
Histogram: 1 0 0 0 0 0 0 0 0 0

Total # of neighbors = 5952
Ave neighs/atom = 186
Neighbor list builds = 0
Dangerous builds = 0

next nr
jump ${simname}.in loopmin
jump AIREBO.in loopmin

# Minimize the with cg + box/relax
  fix             frb all box/relax tri 0.0 couple none
  min_style       cg
  min_modify      line quadratic
  minimize        0.0 1.0e-3 10000 10000
WARNING: Energy due to 6 extra global DOFs will be included in minimizer energies
 (src/min.cpp:225)
Per MPI rank memory allocation (min/avg/max) = 5.023 | 5.023 | 5.023 Mbytes
   Step          Temp          PotEng           Lx             Ly             Lz            Pxx            Pyy            Pzz            Fmax          Fnorm     
       227  4.271823958487379e-10   -237.6506803617053    9.676971970729854    8.380505152096173        49.9812277894  0.02181447653871508  0.01742034616067793 -2.888282382909004e-14 1.025376795005251e-05 5.834843864950519e-05
       228  4.271823958487379e-10   -237.6506803617083    9.676972355814399    8.380505418413094        49.9812277894 -0.008734627350778186 -0.01461592556132614 -2.862540839463217e-14 9.592895028776027e-06 5.337138714474784e-05
Loop time of 0.00169964 on 1 procs for 1 steps with 32 atoms

78.3% CPU use with 1 MPI tasks x no OpenMP threads

Minimization stats:
  Stopping criterion = force tolerance
  Energy initial, next-to-last, final = 
     -237.650680361705  -237.650680361705  -237.650680361708
  Force two-norm initial, final = 9.2193387e-05 7.2431899e-05
  Force max component initial, final = 5.5188811e-05 3.6977081e-05
  Final line search alpha, max atom move = 1 3.6977081e-05
  Iterations, force evaluations = 1 2

MPI task timing breakdown:
Section |  min time  |  avg time  |  max time  |%varavg| %total
---------------------------------------------------------------
Pair    | 0.00091046 | 0.00091046 | 0.00091046 |   0.0 | 53.57
Neigh   | 0          | 0          | 0          |   0.0 |  0.00
Comm    | 7.587e-06  | 7.587e-06  | 7.587e-06  |   0.0 |  0.45
Output  | 0          | 0          | 0          |   0.0 |  0.00
Modify  | 0          | 0          | 0          |   0.0 |  0.00
Other   |            | 0.0007816  |            |       | 45.99

Nlocal:             32 ave          32 max          32 min
Histogram: 1 0 0 0 0 0 0 0 0 0
Nghost:            449 ave         449 max         449 min
Histogram: 1 0 0 0 0 0 0 0 0 0
Neighs:              0 ave           0 max           0 min
Histogram: 1 0 0 0 0 0 0 0 0 0
FullNghs:         5952 ave        5952 max        5952 min
Histogram: 1 0 0 0 0 0 0 0 0 0

Total # of neighbors = 5952
Ave neighs/atom = 186
Neighbor list builds = 0
Dangerous builds = 0

# Minimize the with fire
  unfix           frb
  min_style       fire
  minimize        0.0 1.0e-3 10000 10000
  Parameters for fire:
    dmax  delaystep dtgrow dtshrink alpha0 alphashrink tmax tmin   integrator   halfstepback   abcfire  
     0.1     20      1.1     0.5     0.25     0.99      10  0.02 eulerimplicit      yes          no     
Per MPI rank memory allocation (min/avg/max) = 3.898 | 3.898 | 3.898 Mbytes
   Step          Temp          PotEng           Lx             Ly             Lz            Pxx            Pyy            Pzz            Fmax          Fnorm     
       228                     0   -237.6506803617083    9.676972355814399    8.380505418413094        49.9812277894 -0.00873462726916409 -0.01461592664433149 -2.877201955148204e-14 9.592894940846364e-06 5.337138721518068e-05
       229  2.855241258123804e-10   -237.6506803617109    9.676972355814399    8.380505418413094        49.9812277894 -0.005131840697701849 -0.01821871702972173 -2.834633054045842e-14 8.589212985632422e-06 4.770308346619426e-05
Loop time of 0.00116927 on 1 procs for 1 steps with 32 atoms

62.0% CPU use with 1 MPI tasks x no OpenMP threads

Minimization stats:
  Stopping criterion = force tolerance
  Energy initial, next-to-last, final = 
     -237.650680361708  -237.650680361708  -237.650680361711
  Force two-norm initial, final = 5.3371387e-05 4.7703083e-05
  Force max component initial, final = 9.5928949e-06 8.589213e-06
  Final line search alpha, max atom move = 0 0
  Iterations, force evaluations = 1 2

MPI task timing breakdown:
Section |  min time  |  avg time  |  max time  |%varavg| %total
---------------------------------------------------------------
Pair    | 0.00060423 | 0.00060423 | 0.00060423 |   0.0 | 51.68
Neigh   | 0          | 0          | 0          |   0.0 |  0.00
Comm    | 4.691e-06  | 4.691e-06  | 4.691e-06  |   0.0 |  0.40
Output  | 0          | 0          | 0          |   0.0 |  0.00
Modify  | 0          | 0          | 0          |   0.0 |  0.00
Other   |            | 0.0005603  |            |       | 47.92

Nlocal:             32 ave          32 max          32 min
Histogram: 1 0 0 0 0 0 0 0 0 0
Nghost:            449 ave         449 max         449 min
Histogram: 1 0 0 0 0 0 0 0 0 0
Neighs:              0 ave           0 max           0 min
Histogram: 1 0 0 0 0 0 0 0 0 0
FullNghs:         5952 ave        5952 max        5952 min
Histogram: 1 0 0 0 0 0 0 0 0 0

Total # of neighbors = 5952
Ave neighs/atom = 186
Neighbor list builds = 0
Dangerous builds = 0

next nr
jump ${simname}.in loopmin
jump AIREBO.in loopmin

# Minimize the with cg + box/relax
  fix             frb all box/relax tri 0.0 couple none
  min_style       cg
  min_modify      line quadratic
  minimize        0.0 1.0e-3 10000 10000
WARNING: Energy due to 6 extra global DOFs will be included in minimizer energies
 (src/min.cpp:225)
Per MPI rank memory allocation (min/avg/max) = 5.023 | 5.023 | 5.023 Mbytes
   Step          Temp          PotEng           Lx             Ly             Lz            Pxx            Pyy            Pzz            Fmax          Fnorm     
       229  2.855241258123804e-10    -237.650680361711    9.676972355814399    8.380505418413094        49.9812277894 -0.005131840828067716 -0.01821871722590816 -2.834604738606361e-14 8.589212740273133e-06 4.770308341524487e-05
       230  2.855241258123804e-10   -237.6506803617137    9.676972231687593    8.380505036784474        49.9812277894  0.01326390717649876  0.01442188130279376 -2.800326168330117e-14 8.72103086779763e-06 4.963568187870995e-05
Loop time of 0.00132724 on 1 procs for 1 steps with 32 atoms

77.8% CPU use with 1 MPI tasks x no OpenMP threads

Minimization stats:
  Stopping criterion = force tolerance
  Energy initial, next-to-last, final = 
     -237.650680361711  -237.650680361711  -237.650680361714
  Force two-norm initial, final = 7.1837999e-05 7.0766393e-05
  Force max component initial, final = 4.6091845e-05 3.648616e-05
  Final line search alpha, max atom move = 1 3.648616e-05
  Iterations, force evaluations = 1 2

MPI task timing breakdown:
Section |  min time  |  avg time  |  max time  |%varavg| %total
---------------------------------------------------------------
Pair    | 0.0009216  | 0.0009216  | 0.0009216  |   0.0 | 69.44
Neigh   | 0          | 0          | 0          |   0.0 |  0.00
Comm    | 7.339e-06  | 7.339e-06  | 7.339e-06  |   0.0 |  0.55
Output  | 0          | 0          | 0          |   0.0 |  0.00
Modify  | 0          | 0          | 0          |   0.0 |  0.00
Other   |            | 0.0003983  |            |       | 30.01

Nlocal:             32 ave          32 max          32 min
Histogram: 1 0 0 0 0 0 0 0 0 0
Nghost:            449 ave         449 max         449 min
Histogram: 1 0 0 0 0 0 0 0 0 0
Neighs:              0 ave           0 max           0 min
Histogram: 1 0 0 0 0 0 0 0 0 0
FullNghs:         5952 ave        5952 max        5952 min
Histogram: 1 0 0 0 0 0 0 0 0 0

Total # of neighbors = 5952
Ave neighs/atom = 186
Neighbor list builds = 0
Dangerous builds = 0

# Minimize the with fire
  unfix           frb
  min_style       fire
  minimize        0.0 1.0e-3 10000 10000
  Parameters for fire:
    dmax  delaystep dtgrow dtshrink alpha0 alphashrink tmax tmin   integrator   halfstepback   abcfire  
     0.1     20      1.1     0.5     0.25     0.99      10  0.02 eulerimplicit      yes          no     
Per MPI rank memory allocation (min/avg/max) = 3.898 | 3.898 | 3.898 Mbytes
   Step          Temp          PotEng           Lx             Ly             Lz            Pxx            Pyy            Pzz            Fmax          Fnorm     
       230                     0   -237.6506803617136    9.676972231687593    8.380505036784474        49.9812277894  0.01326390706028542  0.01442188042892889 -2.814535804972561e-14 8.721030911984506e-06 4.963568188038318e-05
       231  2.469527190873369e-10   -237.6506803617148    9.676972231687593    8.380505036784474        49.9812277894  0.01653749426239699  0.01114828992069504 -2.773412762337438e-14 7.809213245169033e-06 4.436417826727332e-05
Loop time of 0.0012164 on 1 procs for 1 steps with 32 atoms

67.7% CPU use with 1 MPI tasks x no OpenMP threads

Minimization stats:
  Stopping criterion = force tolerance
  Energy initial, next-to-last, final = 
     -237.650680361714  -237.650680361714  -237.650680361715
  Force two-norm initial, final = 4.9635682e-05 4.4364178e-05
  Force max component initial, final = 8.7210309e-06 7.8092132e-06
  Final line search alpha, max atom move = 0 0
  Iterations, force evaluations = 1 2

MPI task timing breakdown:
Section |  min time  |  avg time  |  max time  |%varavg| %total
---------------------------------------------------------------
Pair    | 0.00059894 | 0.00059894 | 0.00059894 |   0.0 | 49.24
Neigh   | 0          | 0          | 0          |   0.0 |  0.00
Comm    | 5.103e-06  | 5.103e-06  | 5.103e-06  |   0.0 |  0.42
Output  | 0          | 0          | 0          |   0.0 |  0.00
Modify  | 0          | 0          | 0          |   0.0 |  0.00
Other   |            | 0.0006123  |            |       | 50.34

Nlocal:             32 ave          32 max          32 min
Histogram: 1 0 0 0 0 0 0 0 0 0
Nghost:            449 ave         449 max         449 min
Histogram: 1 0 0 0 0 0 0 0 0 0
Neighs:              0 ave           0 max           0 min
Histogram: 1 0 0 0 0 0 0 0 0 0
FullNghs:         5952 ave        5952 max        5952 min
Histogram: 1 0 0 0 0 0 0 0 0 0

Total # of neighbors = 5952
Ave neighs/atom = 186
Neighbor list builds = 0
Dangerous builds = 0

next nr
jump ${simname}.in loopmin
jump AIREBO.in loopmin

# Minimize the with cg + box/relax
  fix             frb all box/relax tri 0.0 couple none
  min_style       cg
  min_modify      line quadratic
  minimize        0.0 1.0e-3 10000 10000
WARNING: Energy due to 6 extra global DOFs will be included in minimizer energies
 (src/min.cpp:225)
Per MPI rank memory allocation (min/avg/max) = 5.023 | 5.023 | 5.023 Mbytes
   Step          Temp          PotEng           Lx             Ly             Lz            Pxx            Pyy            Pzz            Fmax          Fnorm     
       231  2.469527190873369e-10   -237.6506803617148    9.676972231687593    8.380505036784474        49.9812277894  0.01653749416461047   0.0111482899188684 -2.773395628642583e-14 7.809213217968569e-06 4.436417834992661e-05
       232  2.469527190873369e-10   -237.6506803617178    9.676972544443512    8.380505219373536        49.9812277894 -0.007873968376681287 -0.01175346681703346 -2.747475371054183e-14 7.423030449538182e-06 4.117180959773901e-05
Loop time of 0.00138236 on 1 procs for 1 steps with 32 atoms

79.1% CPU use with 1 MPI tasks x no OpenMP threads

Minimization stats:
  Stopping criterion = force tolerance
  Energy initial, next-to-last, final = 
     -237.650680361715  -237.650680361715  -237.650680361718
  Force two-norm initial, final = 6.7552879e-05 5.7976629e-05
  Force max component initial, final = 4.1838485e-05 2.9735297e-05
  Final line search alpha, max atom move = 1 2.9735297e-05
  Iterations, force evaluations = 1 2

MPI task timing breakdown:
Section |  min time  |  avg time  |  max time  |%varavg| %total
---------------------------------------------------------------
Pair    | 0.00096902 | 0.00096902 | 0.00096902 |   0.0 | 70.10
Neigh   | 0          | 0          | 0          |   0.0 |  0.00
Comm    | 7.622e-06  | 7.622e-06  | 7.622e-06  |   0.0 |  0.55
Output  | 0          | 0          | 0          |   0.0 |  0.00
Modify  | 0          | 0          | 0          |   0.0 |  0.00
Other   |            | 0.0004057  |            |       | 29.35

Nlocal:             32 ave          32 max          32 min
Histogram: 1 0 0 0 0 0 0 0 0 0
Nghost:            449 ave         449 max         449 min
Histogram: 1 0 0 0 0 0 0 0 0 0
Neighs:              0 ave           0 max           0 min
Histogram: 1 0 0 0 0 0 0 0 0 0
FullNghs:         5952 ave        5952 max        5952 min
Histogram: 1 0 0 0 0 0 0 0 0 0

Total # of neighbors = 5952
Ave neighs/atom = 186
Neighbor list builds = 0
Dangerous builds = 0

# Minimize the with fire
  unfix           frb
  min_style       fire
  minimize        0.0 1.0e-3 10000 10000
  Parameters for fire:
    dmax  delaystep dtgrow dtshrink alpha0 alphashrink tmax tmin   integrator   halfstepback   abcfire  
     0.1     20      1.1     0.5     0.25     0.99      10  0.02 eulerimplicit      yes          no     
Per MPI rank memory allocation (min/avg/max) = 3.898 | 3.898 | 3.898 Mbytes
   Step          Temp          PotEng           Lx             Ly             Lz            Pxx            Pyy            Pzz            Fmax          Fnorm     
       232                     0   -237.6506803617178    9.676972544443512    8.380505219373536        49.9812277894 -0.007873968509245511 -0.01175346773795618 -2.761191329706142e-14 7.423030528030949e-06 4.117180958625423e-05
       233  1.69912659668505e-10   -237.6506803617193    9.676972544443512    8.380505219373536        49.9812277894 -0.005094304495070225  -0.0145331339787085 -2.721272378471596e-14 6.648471480685814e-06 3.679947261711733e-05
Loop time of 0.00104658 on 1 procs for 1 steps with 32 atoms

72.3% CPU use with 1 MPI tasks x no OpenMP threads

Minimization stats:
  Stopping criterion = force tolerance
  Energy initial, next-to-last, final = 
     -237.650680361718  -237.650680361718  -237.650680361719
  Force two-norm initial, final = 4.117181e-05 3.6799473e-05
  Force max component initial, final = 7.4230305e-06 6.6484715e-06
  Final line search alpha, max atom move = 0 0
  Iterations, force evaluations = 1 2

MPI task timing breakdown:
Section |  min time  |  avg time  |  max time  |%varavg| %total
---------------------------------------------------------------
Pair    | 0.00066267 | 0.00066267 | 0.00066267 |   0.0 | 63.32
Neigh   | 0          | 0          | 0          |   0.0 |  0.00
Comm    | 5.294e-06  | 5.294e-06  | 5.294e-06  |   0.0 |  0.51
Output  | 0          | 0          | 0          |   0.0 |  0.00
Modify  | 0          | 0          | 0          |   0.0 |  0.00
Other   |            | 0.0003786  |            |       | 36.18

Nlocal:             32 ave          32 max          32 min
Histogram: 1 0 0 0 0 0 0 0 0 0
Nghost:            449 ave         449 max         449 min
Histogram: 1 0 0 0 0 0 0 0 0 0
Neighs:              0 ave           0 max           0 min
Histogram: 1 0 0 0 0 0 0 0 0 0
FullNghs:         5952 ave        5952 max        5952 min
Histogram: 1 0 0 0 0 0 0 0 0 0

Total # of neighbors = 5952
Ave neighs/atom = 186
Neighbor list builds = 0
Dangerous builds = 0

next nr
jump ${simname}.in loopmin
jump AIREBO.in loopmin

# Minimize the with cg + box/relax
  fix             frb all box/relax tri 0.0 couple none
  min_style       cg
  min_modify      line quadratic
  minimize        0.0 1.0e-3 10000 10000
WARNING: Energy due to 6 extra global DOFs will be included in minimizer energies
 (src/min.cpp:225)
Per MPI rank memory allocation (min/avg/max) = 5.023 | 5.023 | 5.023 Mbytes
   Step          Temp          PotEng           Lx             Ly             Lz            Pxx            Pyy            Pzz            Fmax          Fnorm     
       233  1.69912659668505e-10   -237.6506803617194    9.676972544443512    8.380505219373536        49.9812277894 -0.005094304663527546 -0.01453313396767079 -2.721281271493686e-14 6.64847139419944e-06 3.679947274399535e-05
       234  1.69912659668505e-10   -237.6506803617196    9.676972430731773     8.38050493843561        49.9812277894  0.01014330912812634 0.009818192913347039 -2.691590062474356e-14 6.684752980490316e-06 3.798935232247471e-05
Loop time of 0.00118257 on 1 procs for 1 steps with 32 atoms

72.3% CPU use with 1 MPI tasks x no OpenMP threads

Minimization stats:
  Stopping criterion = force tolerance
  Energy initial, next-to-last, final = 
     -237.650680361719  -237.650680361719   -237.65068036172
  Force two-norm initial, final = 5.7350224e-05 5.2578736e-05
  Force max component initial, final = 3.6767624e-05 2.5661729e-05
  Final line search alpha, max atom move = 1 2.5661729e-05
  Iterations, force evaluations = 1 2

MPI task timing breakdown:
Section |  min time  |  avg time  |  max time  |%varavg| %total
---------------------------------------------------------------
Pair    | 0.00072952 | 0.00072952 | 0.00072952 |   0.0 | 61.69
Neigh   | 0          | 0          | 0          |   0.0 |  0.00
Comm    | 6.146e-06  | 6.146e-06  | 6.146e-06  |   0.0 |  0.52
Output  | 0          | 0          | 0          |   0.0 |  0.00
Modify  | 0          | 0          | 0          |   0.0 |  0.00
Other   |            | 0.0004469  |            |       | 37.79

Nlocal:             32 ave          32 max          32 min
Histogram: 1 0 0 0 0 0 0 0 0 0
Nghost:            449 ave         449 max         449 min
Histogram: 1 0 0 0 0 0 0 0 0 0
Neighs:              0 ave           0 max           0 min
Histogram: 1 0 0 0 0 0 0 0 0 0
FullNghs:         5952 ave        5952 max        5952 min
Histogram: 1 0 0 0 0 0 0 0 0 0

Total # of neighbors = 5952
Ave neighs/atom = 186
Neighbor list builds = 0
Dangerous builds = 0

# Minimize the with fire
  unfix           frb
  min_style       fire
  minimize        0.0 1.0e-3 10000 10000
  Parameters for fire:
    dmax  delaystep dtgrow dtshrink alpha0 alphashrink tmax tmin   integrator   halfstepback   abcfire  
     0.1     20      1.1     0.5     0.25     0.99      10  0.02 eulerimplicit      yes          no     
Per MPI rank memory allocation (min/avg/max) = 3.898 | 3.898 | 3.898 Mbytes
   Step          Temp          PotEng           Lx             Ly             Lz            Pxx            Pyy            Pzz            Fmax          Fnorm     
       234                     0   -237.6506803617195    9.676972430731773     8.38050493843561        49.9812277894  0.01014330925611408 0.009818192316074453 -2.704930378661427e-14 6.684753042551783e-06 3.798935247504287e-05
       235  1.446603834422275e-10   -237.6506803617208    9.676972430731773     8.38050493843561        49.9812277894   0.0126437958767231 0.007317703460623315 -2.666319953191662e-14 5.987976733012879e-06 3.395505761631695e-05
Loop time of 0.00142852 on 1 procs for 1 steps with 32 atoms

79.9% CPU use with 1 MPI tasks x no OpenMP threads

Minimization stats:
  Stopping criterion = force tolerance
  Energy initial, next-to-last, final = 
      -237.65068036172   -237.65068036172  -237.650680361721
  Force two-norm initial, final = 3.7989352e-05 3.3955058e-05
  Force max component initial, final = 6.684753e-06 5.9879767e-06
  Final line search alpha, max atom move = 0 0
  Iterations, force evaluations = 1 2

MPI task timing breakdown:
Section |  min time  |  avg time  |  max time  |%varavg| %total
---------------------------------------------------------------
Pair    | 0.0010009  | 0.0010009  | 0.0010009  |   0.0 | 70.06
Neigh   | 0          | 0          | 0          |   0.0 |  0.00
Comm    | 7.725e-06  | 7.725e-06  | 7.725e-06  |   0.0 |  0.54
Output  | 0          | 0          | 0          |   0.0 |  0.00
Modify  | 0          | 0          | 0          |   0.0 |  0.00
Other   |            | 0.0004199  |            |       | 29.40

Nlocal:             32 ave          32 max          32 min
Histogram: 1 0 0 0 0 0 0 0 0 0
Nghost:            449 ave         449 max         449 min
Histogram: 1 0 0 0 0 0 0 0 0 0
Neighs:              0 ave           0 max           0 min
Histogram: 1 0 0 0 0 0 0 0 0 0
FullNghs:         5952 ave        5952 max        5952 min
Histogram: 1 0 0 0 0 0 0 0 0 0

Total # of neighbors = 5952
Ave neighs/atom = 186
Neighbor list builds = 0
Dangerous builds = 0

next nr
jump ${simname}.in loopmin
jump AIREBO.in loopmin

# Minimize the with cg + box/relax
  fix             frb all box/relax tri 0.0 couple none
  min_style       cg
  min_modify      line quadratic
  minimize        0.0 1.0e-3 10000 10000
WARNING: Energy due to 6 extra global DOFs will be included in minimizer energies
 (src/min.cpp:225)
Per MPI rank memory allocation (min/avg/max) = 5.023 | 5.023 | 5.023 Mbytes
   Step          Temp          PotEng           Lx             Ly             Lz            Pxx            Pyy            Pzz            Fmax          Fnorm     
       235  1.446603834422275e-10   -237.6506803617208    9.676972430731773     8.38050493843561        49.9812277894  0.01264379610846783 0.007317703563010714 -2.666317597551538e-14 5.987976650190241e-06 3.395505757884024e-05
       236  1.446603834422275e-10   -237.6506803617226    9.676972683896153    8.380505065326542        49.9812277894 -0.006873003268787273 -0.009282200559795164 -2.640535984308024e-14 5.769892047369218e-06 3.189049469107126e-05
Loop time of 0.00108461 on 1 procs for 1 steps with 32 atoms

69.3% CPU use with 1 MPI tasks x no OpenMP threads

Minimization stats:
  Stopping criterion = force tolerance
  Energy initial, next-to-last, final = 
     -237.650680361721  -237.650680361721  -237.650680361723
  Force two-norm initial, final = 5.0432044e-05 4.6216391e-05
  Force max component initial, final = 3.1987753e-05 2.3483198e-05
  Final line search alpha, max atom move = 1 2.3483198e-05
  Iterations, force evaluations = 1 2

MPI task timing breakdown:
Section |  min time  |  avg time  |  max time  |%varavg| %total
---------------------------------------------------------------
Pair    | 0.00064792 | 0.00064792 | 0.00064792 |   0.0 | 59.74
Neigh   | 0          | 0          | 0          |   0.0 |  0.00
Comm    | 4.841e-06  | 4.841e-06  | 4.841e-06  |   0.0 |  0.45
Output  | 0          | 0          | 0          |   0.0 |  0.00
Modify  | 0          | 0          | 0          |   0.0 |  0.00
Other   |            | 0.0004319  |            |       | 39.82

Nlocal:             32 ave          32 max          32 min
Histogram: 1 0 0 0 0 0 0 0 0 0
Nghost:            449 ave         449 max         449 min
Histogram: 1 0 0 0 0 0 0 0 0 0
Neighs:              0 ave           0 max           0 min
Histogram: 1 0 0 0 0 0 0 0 0 0
FullNghs:         5952 ave        5952 max        5952 min
Histogram: 1 0 0 0 0 0 0 0 0 0

Total # of neighbors = 5952
Ave neighs/atom = 186
Neighbor list builds = 0
Dangerous builds = 0

# Minimize the with fire
  unfix           frb
  min_style       fire
  minimize        0.0 1.0e-3 10000 10000
  Parameters for fire:
    dmax  delaystep dtgrow dtshrink alpha0 alphashrink tmax tmin   integrator   halfstepback   abcfire  
     0.1     20      1.1     0.5     0.25     0.99      10  0.02 eulerimplicit      yes          no     
Per MPI rank memory allocation (min/avg/max) = 3.898 | 3.898 | 3.898 Mbytes
   Step          Temp          PotEng           Lx             Ly             Lz            Pxx            Pyy            Pzz            Fmax          Fnorm     
       236                     0   -237.6506803617225    9.676972683896153    8.380505065326542        49.9812277894 -0.006873003496118104 -0.00928220101996673 -2.653429304707096e-14 5.769891988860465e-06 3.189049464433376e-05
       237  1.019408702374835e-10   -237.6506803617235    9.676972683896153    8.380505065326542        49.9812277894 -0.004720070432552206 -0.01143513537692512 -2.615894308892064e-14 5.169722904541096e-06 2.850414036598329e-05
Loop time of 0.00135399 on 1 procs for 1 steps with 32 atoms

79.9% CPU use with 1 MPI tasks x no OpenMP threads

Minimization stats:
  Stopping criterion = force tolerance
  Energy initial, next-to-last, final = 
     -237.650680361723  -237.650680361723  -237.650680361724
  Force two-norm initial, final = 3.1890495e-05 2.850414e-05
  Force max component initial, final = 5.769892e-06 5.1697229e-06
  Final line search alpha, max atom move = 0 0
  Iterations, force evaluations = 1 2

MPI task timing breakdown:
Section |  min time  |  avg time  |  max time  |%varavg| %total
---------------------------------------------------------------
Pair    | 0.00097397 | 0.00097397 | 0.00097397 |   0.0 | 71.93
Neigh   | 0          | 0          | 0          |   0.0 |  0.00
Comm    | 7.4e-06    | 7.4e-06    | 7.4e-06    |   0.0 |  0.55
Output  | 0          | 0          | 0          |   0.0 |  0.00
Modify  | 0          | 0          | 0          |   0.0 |  0.00
Other   |            | 0.0003726  |            |       | 27.52

Nlocal:             32 ave          32 max          32 min
Histogram: 1 0 0 0 0 0 0 0 0 0
Nghost:            449 ave         449 max         449 min
Histogram: 1 0 0 0 0 0 0 0 0 0
Neighs:              0 ave           0 max           0 min
Histogram: 1 0 0 0 0 0 0 0 0 0
FullNghs:         5952 ave        5952 max        5952 min
Histogram: 1 0 0 0 0 0 0 0 0 0

Total # of neighbors = 5952
Ave neighs/atom = 186
Neighbor list builds = 0
Dangerous builds = 0

next nr
jump ${simname}.in loopmin
jump AIREBO.in loopmin

# Minimize the with cg + box/relax
  fix             frb all box/relax tri 0.0 couple none
  min_style       cg
  min_modify      line quadratic
  minimize        0.0 1.0e-3 10000 10000
WARNING: Energy due to 6 extra global DOFs will be included in minimizer energies
 (src/min.cpp:225)
Per MPI rank memory allocation (min/avg/max) = 5.023 | 5.023 | 5.023 Mbytes
   Step          Temp          PotEng           Lx             Ly             Lz            Pxx            Pyy            Pzz            Fmax          Fnorm     
       237  1.019408702374835e-10   -237.6506803617235    9.676972683896153    8.380505065326542        49.9812277894 -0.004720070371425336 -0.01143513537243416 -2.615913992344497e-14  5.1697229249692e-06 2.850414027845494e-05
       238  1.019408702374835e-10   -237.6506803617228    9.676972584343215    8.380504856455797        49.9812277894 0.007779741986356618 0.006854928817228195 -2.589623905541537e-14 5.146964043523106e-06 2.919587521462883e-05
Loop time of 0.00112705 on 1 procs for 1 steps with 32 atoms

68.8% CPU use with 1 MPI tasks x no OpenMP threads

Minimization stats:
  Stopping criterion = force tolerance
  Energy initial, next-to-last, final = 
     -237.650680361724  -237.650680361724  -237.650680361723
  Force two-norm initial, final = 4.5579856e-05 3.9570827e-05
  Force max component initial, final = 2.8929944e-05 1.9682101e-05
  Final line search alpha, max atom move = 1 1.9682101e-05
  Iterations, force evaluations = 1 2

MPI task timing breakdown:
Section |  min time  |  avg time  |  max time  |%varavg| %total
---------------------------------------------------------------
Pair    | 0.00066216 | 0.00066216 | 0.00066216 |   0.0 | 58.75
Neigh   | 0          | 0          | 0          |   0.0 |  0.00
Comm    | 5.277e-06  | 5.277e-06  | 5.277e-06  |   0.0 |  0.47
Output  | 0          | 0          | 0          |   0.0 |  0.00
Modify  | 0          | 0          | 0          |   0.0 |  0.00
Other   |            | 0.0004596  |            |       | 40.78

Nlocal:             32 ave          32 max          32 min
Histogram: 1 0 0 0 0 0 0 0 0 0
Nghost:            449 ave         449 max         449 min
Histogram: 1 0 0 0 0 0 0 0 0 0
Neighs:              0 ave           0 max           0 min
Histogram: 1 0 0 0 0 0 0 0 0 0
FullNghs:         5952 ave        5952 max        5952 min
Histogram: 1 0 0 0 0 0 0 0 0 0

Total # of neighbors = 5952
Ave neighs/atom = 186
Neighbor list builds = 0
Dangerous builds = 0

# Minimize the with fire
  unfix           frb
  min_style       fire
  minimize        0.0 1.0e-3 10000 10000
  Parameters for fire:
    dmax  delaystep dtgrow dtshrink alpha0 alphashrink tmax tmin   integrator   halfstepback   abcfire  
     0.1     20      1.1     0.5     0.25     0.99      10  0.02 eulerimplicit      yes          no     
Per MPI rank memory allocation (min/avg/max) = 3.898 | 3.898 | 3.898 Mbytes
   Step          Temp          PotEng           Lx             Ly             Lz            Pxx            Pyy            Pzz            Fmax          Fnorm     
       238                     0   -237.6506803617228    9.676972584343215    8.380504856455797        49.9812277894 0.007779742098450572 0.006854928358142351 -2.60213002125456e-14 5.146964131119702e-06 2.919587511939786e-05
[...]
Histogram: 1 0 0 0 0 0 0 0 0 0
FullNghs:         5952 ave        5952 max        5952 min
Histogram: 1 0 0 0 0 0 0 0 0 0

Total # of neighbors = 5952
Ave neighs/atom = 186
Neighbor list builds = 0
Dangerous builds = 0

# Minimize the with fire
  unfix           frb
  min_style       fire
  minimize        0.0 1.0e-3 10000 10000
  Parameters for fire:
    dmax  delaystep dtgrow dtshrink alpha0 alphashrink tmax tmin   integrator   halfstepback   abcfire  
     0.1     20      1.1     0.5     0.25     0.99      10  0.02 eulerimplicit      yes          no     
Per MPI rank memory allocation (min/avg/max) = 3.898 | 3.898 | 3.898 Mbytes
   Step          Temp          PotEng           Lx             Ly             Lz            Pxx            Pyy            Pzz            Fmax          Fnorm     
       402                     0   -237.6506803617287    9.676973107940158    8.380504543221809        49.9812277894 2.226431341626711e-06 2.199846316505343e-06 -9.101364738723304e-15 4.48138246823826e-09 1.607121750214358e-08
       403  2.588958788026275e-17   -237.6506803617289    9.676973107940158    8.380504543221809        49.9812277894 2.242292544312163e-06 2.183680509659672e-06 -9.054288347976499e-15 4.423635643555079e-09 1.58003614442957e-08
Loop time of 0.00129714 on 1 procs for 1 steps with 32 atoms

70.0% CPU use with 1 MPI tasks x no OpenMP threads

Minimization stats:
  Stopping criterion = force tolerance
  Energy initial, next-to-last, final = 
     -237.650680361729  -237.650680361729  -237.650680361729
  Force two-norm initial, final = 1.6071218e-08 1.5800361e-08
  Force max component initial, final = 4.4813825e-09 4.4236356e-09
  Final line search alpha, max atom move = 0 0
  Iterations, force evaluations = 1 2

MPI task timing breakdown:
Section |  min time  |  avg time  |  max time  |%varavg| %total
---------------------------------------------------------------
Pair    | 0.0007887  | 0.0007887  | 0.0007887  |   0.0 | 60.80
Neigh   | 0          | 0          | 0          |   0.0 |  0.00
Comm    | 6.701e-06  | 6.701e-06  | 6.701e-06  |   0.0 |  0.52
Output  | 0          | 0          | 0          |   0.0 |  0.00
Modify  | 0          | 0          | 0          |   0.0 |  0.00
Other   |            | 0.0005017  |            |       | 38.68

Nlocal:             32 ave          32 max          32 min
Histogram: 1 0 0 0 0 0 0 0 0 0
Nghost:            449 ave         449 max         449 min
Histogram: 1 0 0 0 0 0 0 0 0 0
Neighs:              0 ave           0 max           0 min
Histogram: 1 0 0 0 0 0 0 0 0 0
FullNghs:         5952 ave        5952 max        5952 min
Histogram: 1 0 0 0 0 0 0 0 0 0

Total # of neighbors = 5952
Ave neighs/atom = 186
Neighbor list builds = 0
Dangerous builds = 0

next nr
jump ${simname}.in loopmin
jump AIREBO.in loopmin

# Minimize the with cg + box/relax
  fix             frb all box/relax tri 0.0 couple none
  min_style       cg
  min_modify      line quadratic
  minimize        0.0 1.0e-3 10000 10000
WARNING: Energy due to 6 extra global DOFs will be included in minimizer energies
 (src/min.cpp:225)
Per MPI rank memory allocation (min/avg/max) = 5.023 | 5.023 | 5.023 Mbytes
   Step          Temp          PotEng           Lx             Ly             Lz            Pxx            Pyy            Pzz            Fmax          Fnorm     
       403  2.588958788026275e-17   -237.6506803617289    9.676973107940158    8.380504543221809        49.9812277894 2.242354814591545e-06 2.183804818467971e-06 -9.054335193142598e-15 4.423660076267877e-09 1.580029248897252e-08
       404  2.588958788026275e-17    -237.650680361729    9.676973108046534    8.380504543311526        49.9812277894 -7.307084595932595e-06 -7.240219312902581e-06 -8.979481139817762e-15 4.766527799196507e-09 1.524955069521195e-08
Loop time of 0.00156488 on 1 procs for 1 steps with 32 atoms

71.7% CPU use with 1 MPI tasks x no OpenMP threads

Minimization stats:
  Stopping criterion = force tolerance
  Energy initial, next-to-last, final = 
     -237.650680361729  -237.650680361729  -237.650680361729
  Force two-norm initial, final = 1.7909303e-08 3.1904651e-08
  Force max component initial, final = 5.6729714e-09 1.8486317e-08
  Final line search alpha, max atom move = 1 1.8486317e-08
  Iterations, force evaluations = 1 2

MPI task timing breakdown:
Section |  min time  |  avg time  |  max time  |%varavg| %total
---------------------------------------------------------------
Pair    | 0.00097024 | 0.00097024 | 0.00097024 |   0.0 | 62.00
Neigh   | 0          | 0          | 0          |   0.0 |  0.00
Comm    | 8.471e-06  | 8.471e-06  | 8.471e-06  |   0.0 |  0.54
Output  | 0          | 0          | 0          |   0.0 |  0.00
Modify  | 0          | 0          | 0          |   0.0 |  0.00
Other   |            | 0.0005862  |            |       | 37.46

Nlocal:             32 ave          32 max          32 min
Histogram: 1 0 0 0 0 0 0 0 0 0
Nghost:            449 ave         449 max         449 min
Histogram: 1 0 0 0 0 0 0 0 0 0
Neighs:              0 ave           0 max           0 min
Histogram: 1 0 0 0 0 0 0 0 0 0
FullNghs:         5952 ave        5952 max        5952 min
Histogram: 1 0 0 0 0 0 0 0 0 0

Total # of neighbors = 5952
Ave neighs/atom = 186
Neighbor list builds = 0
Dangerous builds = 0

# Minimize the with fire
  unfix           frb
  min_style       fire
  minimize        0.0 1.0e-3 10000 10000
  Parameters for fire:
    dmax  delaystep dtgrow dtshrink alpha0 alphashrink tmax tmin   integrator   halfstepback   abcfire  
     0.1     20      1.1     0.5     0.25     0.99      10  0.02 eulerimplicit      yes          no     
Per MPI rank memory allocation (min/avg/max) = 3.898 | 3.898 | 3.898 Mbytes
   Step          Temp          PotEng           Lx             Ly             Lz            Pxx            Pyy            Pzz            Fmax          Fnorm     
       404                     0   -237.6506803617291    9.676973108046534    8.380504543311526        49.9812277894 -7.307162767528505e-06 -7.240437007611352e-06 -8.995148685676651e-15 4.766390344912441e-09 1.524958636828391e-08
       405  2.330994573149893e-17   -237.6506803617293    9.676973108046534    8.380504543311526        49.9812277894 -7.292433366662785e-06 -7.255252389182009e-06 -8.949197803242267e-15 4.654213202337498e-09 1.498977387436439e-08
Loop time of 0.00139654 on 1 procs for 1 steps with 32 atoms

70.6% CPU use with 1 MPI tasks x no OpenMP threads

Minimization stats:
  Stopping criterion = force tolerance
  Energy initial, next-to-last, final = 
     -237.650680361729  -237.650680361729  -237.650680361729
  Force two-norm initial, final = 1.5249586e-08 1.4989774e-08
  Force max component initial, final = 4.7663903e-09 4.6542132e-09
  Final line search alpha, max atom move = 0 0
  Iterations, force evaluations = 1 2

MPI task timing breakdown:
Section |  min time  |  avg time  |  max time  |%varavg| %total
---------------------------------------------------------------
Pair    | 0.00084383 | 0.00084383 | 0.00084383 |   0.0 | 60.42
Neigh   | 0          | 0          | 0          |   0.0 |  0.00
Comm    | 6e-06      | 6e-06      | 6e-06      |   0.0 |  0.43
Output  | 0          | 0          | 0          |   0.0 |  0.00
Modify  | 0          | 0          | 0          |   0.0 |  0.00
Other   |            | 0.0005467  |            |       | 39.15

Nlocal:             32 ave          32 max          32 min
Histogram: 1 0 0 0 0 0 0 0 0 0
Nghost:            449 ave         449 max         449 min
Histogram: 1 0 0 0 0 0 0 0 0 0
Neighs:              0 ave           0 max           0 min
Histogram: 1 0 0 0 0 0 0 0 0 0
FullNghs:         5952 ave        5952 max        5952 min
Histogram: 1 0 0 0 0 0 0 0 0 0

Total # of neighbors = 5952
Ave neighs/atom = 186
Neighbor list builds = 0
Dangerous builds = 0

next nr
jump ${simname}.in loopmin
jump AIREBO.in loopmin

# Minimize the with cg + box/relax
  fix             frb all box/relax tri 0.0 couple none
  min_style       cg
  min_modify      line quadratic
  minimize        0.0 1.0e-3 10000 10000
WARNING: Energy due to 6 extra global DOFs will be included in minimizer energies
 (src/min.cpp:225)
Per MPI rank memory allocation (min/avg/max) = 5.023 | 5.023 | 5.023 Mbytes
   Step          Temp          PotEng           Lx             Ly             Lz            Pxx            Pyy            Pzz            Fmax          Fnorm     
       405  2.330994573149893e-17   -237.6506803617293    9.676973108046534    8.380504543311526        49.9812277894 -7.292553500428474e-06 -7.255161714653335e-06 -8.949250298022775e-15 4.654451891614175e-09 1.498990549076183e-08
       406  2.330994573149893e-17   -237.6506803617283    9.676973107943391    8.380504543222662        49.9812277894 2.03194623323871e-06 2.013085910168973e-06 -8.927543860712346e-15 4.091937353192798e-09 1.47866453931883e-08
Loop time of 0.00144581 on 1 procs for 1 steps with 32 atoms

78.4% CPU use with 1 MPI tasks x no OpenMP threads

Minimization stats:
  Stopping criterion = force tolerance
  Energy initial, next-to-last, final = 
     -237.650680361729  -237.650680361729  -237.650680361728
  Force two-norm initial, final = 3.1666591e-08 1.6717662e-08
  Force max component initial, final = 1.8449555e-08 5.1406552e-09
  Final line search alpha, max atom move = 1 5.1406552e-09
  Iterations, force evaluations = 1 2

MPI task timing breakdown:
Section |  min time  |  avg time  |  max time  |%varavg| %total
---------------------------------------------------------------
Pair    | 0.00099582 | 0.00099582 | 0.00099582 |   0.0 | 68.88
Neigh   | 0          | 0          | 0          |   0.0 |  0.00
Comm    | 8.722e-06  | 8.722e-06  | 8.722e-06  |   0.0 |  0.60
Output  | 0          | 0          | 0          |   0.0 |  0.00
Modify  | 0          | 0          | 0          |   0.0 |  0.00
Other   |            | 0.0004413  |            |       | 30.52

Nlocal:             32 ave          32 max          32 min
Histogram: 1 0 0 0 0 0 0 0 0 0
Nghost:            449 ave         449 max         449 min
Histogram: 1 0 0 0 0 0 0 0 0 0
Neighs:              0 ave           0 max           0 min
Histogram: 1 0 0 0 0 0 0 0 0 0
FullNghs:         5952 ave        5952 max        5952 min
Histogram: 1 0 0 0 0 0 0 0 0 0

Total # of neighbors = 5952
Ave neighs/atom = 186
Neighbor list builds = 0
Dangerous builds = 0

# Minimize the with fire
  unfix           frb
  min_style       fire
  minimize        0.0 1.0e-3 10000 10000
  Parameters for fire:
    dmax  delaystep dtgrow dtshrink alpha0 alphashrink tmax tmin   integrator   halfstepback   abcfire  
     0.1     20      1.1     0.5     0.25     0.99      10  0.02 eulerimplicit      yes          no     
Per MPI rank memory allocation (min/avg/max) = 3.898 | 3.898 | 3.898 Mbytes
   Step          Temp          PotEng           Lx             Ly             Lz            Pxx            Pyy            Pzz            Fmax          Fnorm     
       406                     0   -237.6506803617286    9.676973107943391    8.380504543222662        49.9812277894 2.031814441215796e-06 2.013081508059566e-06 -8.942737307089567e-15 4.091906045770866e-09 1.478664040514011e-08
       407  2.191622790496949e-17   -237.6506803617287    9.676973107943391    8.380504543222662        49.9812277894 2.043198936892948e-06 2.001839804440173e-06 -8.897564266617978e-15 4.039700236650734e-09 1.454669665678935e-08
Loop time of 0.00110348 on 1 procs for 1 steps with 32 atoms

50.9% CPU use with 1 MPI tasks x no OpenMP threads

Minimization stats:
  Stopping criterion = force tolerance
  Energy initial, next-to-last, final = 
     -237.650680361729  -237.650680361729  -237.650680361729
  Force two-norm initial, final = 1.478664e-08 1.4546697e-08
  Force max component initial, final = 4.091906e-09 4.0397002e-09
  Final line search alpha, max atom move = 0 0
  Iterations, force evaluations = 1 2

MPI task timing breakdown:
Section |  min time  |  avg time  |  max time  |%varavg| %total
---------------------------------------------------------------
Pair    | 0.00067303 | 0.00067303 | 0.00067303 |   0.0 | 60.99
Neigh   | 0          | 0          | 0          |   0.0 |  0.00
Comm    | 4.936e-06  | 4.936e-06  | 4.936e-06  |   0.0 |  0.45
Output  | 0          | 0          | 0          |   0.0 |  0.00
Modify  | 0          | 0          | 0          |   0.0 |  0.00
Other   |            | 0.0004255  |            |       | 38.56

Nlocal:             32 ave          32 max          32 min
Histogram: 1 0 0 0 0 0 0 0 0 0
Nghost:            449 ave         449 max         449 min
Histogram: 1 0 0 0 0 0 0 0 0 0
Neighs:              0 ave           0 max           0 min
Histogram: 1 0 0 0 0 0 0 0 0 0
FullNghs:         5952 ave        5952 max        5952 min
Histogram: 1 0 0 0 0 0 0 0 0 0

Total # of neighbors = 5952
Ave neighs/atom = 186
Neighbor list builds = 0
Dangerous builds = 0

next nr
jump ${simname}.in loopmin
jump AIREBO.in loopmin

# Minimize the with cg + box/relax
  fix             frb all box/relax tri 0.0 couple none
  min_style       cg
  min_modify      line quadratic
  minimize        0.0 1.0e-3 10000 10000
Per MPI rank memory allocation (min/avg/max) = 5.023 | 5.023 | 5.023 Mbytes
   Step          Temp          PotEng           Lx             Ly             Lz            Pxx            Pyy            Pzz            Fmax          Fnorm     
WARNING: Too many warnings: 101 vs 100. All future warnings will be suppressed (src/thermo.cpp:472)
       407  2.191622790496949e-17   -237.6506803617288    9.676973107943391    8.380504543222662        49.9812277894 2.043284530420418e-06 2.001653814357696e-06 -8.897510326283782e-15 4.039726001631161e-09 1.454669120226448e-08
       408  2.191622790496949e-17   -237.6506803617295    9.676973108041489    8.380504543305886        49.9812277894 -6.775798684926432e-06 -6.72734082900896e-06 -8.8245239328006e-15 4.358688248870535e-09 1.406171129390881e-08
Loop time of 0.001316 on 1 procs for 1 steps with 32 atoms

37.0% CPU use with 1 MPI tasks x no OpenMP threads

Minimization stats:
  Stopping criterion = force tolerance
  Energy initial, next-to-last, final = 
     -237.650680361729  -237.650680361729   -237.65068036173
  Force two-norm initial, final = 1.6464116e-08 2.9566756e-08
  Force max component initial, final = 5.1693401e-09 1.7142208e-08
  Final line search alpha, max atom move = 1 1.7142208e-08
  Iterations, force evaluations = 1 2

MPI task timing breakdown:
Section |  min time  |  avg time  |  max time  |%varavg| %total
---------------------------------------------------------------
Pair    | 0.00088172 | 0.00088172 | 0.00088172 |   0.0 | 67.00
Neigh   | 0          | 0          | 0          |   0.0 |  0.00
Comm    | 6.733e-06  | 6.733e-06  | 6.733e-06  |   0.0 |  0.51
Output  | 0          | 0          | 0          |   0.0 |  0.00
Modify  | 0          | 0          | 0          |   0.0 |  0.00
Other   |            | 0.0004276  |            |       | 32.49

Nlocal:             32 ave          32 max          32 min
Histogram: 1 0 0 0 0 0 0 0 0 0
Nghost:            449 ave         449 max         449 min
Histogram: 1 0 0 0 0 0 0 0 0 0
Neighs:              0 ave           0 max           0 min
Histogram: 1 0 0 0 0 0 0 0 0 0
FullNghs:         5952 ave        5952 max        5952 min
Histogram: 1 0 0 0 0 0 0 0 0 0

Total # of neighbors = 5952
Ave neighs/atom = 186
Neighbor list builds = 0
Dangerous builds = 0

# Minimize the with fire
  unfix           frb
  min_style       fire
  minimize        0.0 1.0e-3 10000 10000
  Parameters for fire:
    dmax  delaystep dtgrow dtshrink alpha0 alphashrink tmax tmin   integrator   halfstepback   abcfire  
     0.1     20      1.1     0.5     0.25     0.99      10  0.02 eulerimplicit      yes          no     
Per MPI rank memory allocation (min/avg/max) = 3.898 | 3.898 | 3.898 Mbytes
   Step          Temp          PotEng           Lx             Ly             Lz            Pxx            Pyy            Pzz            Fmax          Fnorm     
       408                     0   -237.6506803617296    9.676973108041489    8.380504543305886        49.9812277894 -6.775901383860988e-06 -6.727372018158939e-06 -8.839731818792135e-15 4.35883413217597e-09 1.406172357981211e-08
       409  1.982000848685594e-17   -237.6506803617296    9.676973108041489    8.380504543305886        49.9812277894 -6.765419544415127e-06 -6.737807413279771e-06 -8.79547297522015e-15 4.256100930022377e-09 1.383008436190592e-08
Loop time of 0.00096456 on 1 procs for 1 steps with 32 atoms

72.4% CPU use with 1 MPI tasks x no OpenMP threads

Minimization stats:
  Stopping criterion = force tolerance
  Energy initial, next-to-last, final = 
      -237.65068036173   -237.65068036173   -237.65068036173
  Force two-norm initial, final = 1.4061724e-08 1.3830084e-08
  Force max component initial, final = 4.3588341e-09 4.2561009e-09
  Final line search alpha, max atom move = 0 0
  Iterations, force evaluations = 1 2

MPI task timing breakdown:
Section |  min time  |  avg time  |  max time  |%varavg| %total
---------------------------------------------------------------
Pair    | 0.00061501 | 0.00061501 | 0.00061501 |   0.0 | 63.76
Neigh   | 0          | 0          | 0          |   0.0 |  0.00
Comm    | 4.848e-06  | 4.848e-06  | 4.848e-06  |   0.0 |  0.50
Output  | 0          | 0          | 0          |   0.0 |  0.00
Modify  | 0          | 0          | 0          |   0.0 |  0.00
Other   |            | 0.0003447  |            |       | 35.74

Nlocal:             32 ave          32 max          32 min
Histogram: 1 0 0 0 0 0 0 0 0 0
Nghost:            449 ave         449 max         449 min
Histogram: 1 0 0 0 0 0 0 0 0 0
Neighs:              0 ave           0 max           0 min
Histogram: 1 0 0 0 0 0 0 0 0 0
FullNghs:         5952 ave        5952 max        5952 min
Histogram: 1 0 0 0 0 0 0 0 0 0

Total # of neighbors = 5952
Ave neighs/atom = 186
Neighbor list builds = 0
Dangerous builds = 0

next nr
jump ${simname}.in loopmin
jump AIREBO.in loopmin

variable        energy equal pe
fix             output all ave/time 1 1 1 v_energy file ${simname}_energy.data
fix             output all ave/time 1 1 1 v_energy file AIREBO_energy.data
dump            dump1 all custom 1 ${simname}.lammpstrj id type x y z fx fy fz
dump            dump1 all custom 1 AIREBO.lammpstrj id type x y z fx fy fz
dump_modify     dump1 sort id

fix             nve all nve
run             0
Per MPI rank memory allocation (min/avg/max) = 3.898 | 3.898 | 3.898 Mbytes
   Step          Temp          PotEng           Lx             Ly             Lz            Pxx            Pyy            Pzz            Fmax          Fnorm     
       409  1.982000848685594e-17   -237.6506803617294    9.676973108041489    8.380504543305886        49.9812277894 -6.765288768060244e-06 -6.737795787572443e-06 -8.795496043689686e-15 4.256031875017607e-09 1.383004870085837e-08
Loop time of 1.433e-06 on 1 procs for 0 steps with 32 atoms

209.4% CPU use with 1 MPI tasks x no OpenMP threads

MPI task timing breakdown:
Section |  min time  |  avg time  |  max time  |%varavg| %total
---------------------------------------------------------------
Pair    | 0          | 0          | 0          |   0.0 |  0.00
Neigh   | 0          | 0          | 0          |   0.0 |  0.00
Comm    | 0          | 0          | 0          |   0.0 |  0.00
Output  | 0          | 0          | 0          |   0.0 |  0.00
Modify  | 0          | 0          | 0          |   0.0 |  0.00
Other   |            | 1.433e-06  |            |       |100.00

Nlocal:             32 ave          32 max          32 min
Histogram: 1 0 0 0 0 0 0 0 0 0
Nghost:            449 ave         449 max         449 min
Histogram: 1 0 0 0 0 0 0 0 0 0
Neighs:              0 ave           0 max           0 min
Histogram: 1 0 0 0 0 0 0 0 0 0
FullNghs:         5952 ave        5952 max        5952 min
Histogram: 1 0 0 0 0 0 0 0 0 0

Total # of neighbors = 5952
Ave neighs/atom = 186
Neighbor list builds = 0
Dangerous builds = 0
Total wall time: 0:00:01
