ITEM: TIMESTEP
409
ITEM: NUMBER OF ATOMS
32
ITEM: BOX BOUNDS xy xz yz pp pp pp
8.8675996229264947e-02 1.4604140105558933e+01 4.8384865539293358e+00
7.6650638647009120e-02 8.4571586975296782e+00 4.4473588440310050e-06
1.6031150346021378e-16 4.9981227789400002e+01 3.5155767826539883e-06
ITEM: ATOMS id type x y z fx fy fz
1 1 14.6031 8.45629 23.3912 2.73694e-09 1.38264e-09 1.4156e-09
2 1 1.29721 0.774165 23.3912 2.39748e-09 2.82406e-09 -2.71569e-11
3 1 10.9742 2.17092 23.3912 1.536e-09 1.7054e-09 -6.25928e-10
4 1 2.50683 2.86929 23.3912 1.34806e-09 -6.26589e-10 -1.827e-10
5 1 12.1838 4.26604 23.3912 5.85828e-10 -2.35319e-09 1.40497e-09
6 1 3.71646 4.96442 23.3912 4.19676e-10 -2.60396e-09 -8.39815e-10
7 1 13.3934 6.36117 23.3912 7.76427e-10 -1.97554e-09 -1.44288e-09
8 1 4.92608 7.05954 23.3912 1.39676e-09 3.34049e-10 -3.15383e-10
9 1 7.34532 8.45629 23.3912 -4.25882e-11 2.07618e-09 8.90483e-12
10 1 3.71646 0.774165 23.3912 -1.77865e-09 2.52927e-09 -8.49168e-10
11 1 3.71646 2.17092 23.3912 -1.19871e-09 5.11815e-10 9.61104e-10
12 1 4.92608 2.86929 23.3912 -1.71792e-09 -1.19123e-09 6.89785e-10
13 1 4.92608 4.26604 23.3912 -4.09693e-10 -2.06309e-09 4.89928e-10
14 1 6.1357 4.96442 23.3912 -4.93172e-10 -7.01235e-10 -9.41638e-10
15 1 6.1357 6.36117 23.3912 1.24621e-09 -3.58699e-11 2.87122e-10
16 1 7.34532 7.05954 23.3912 8.18388e-10 2.35702e-09 2.36199e-10
17 1 9.76456 8.45629 23.3912 -4.25603e-09 1.5133e-09 2.41421e-11
18 1 6.1357 0.774165 23.3912 -2.8226e-09 -4.2373e-10 -1.34476e-09
19 1 6.1357 2.17092 23.3912 -2.77143e-09 -4.27389e-10 2.03086e-09
20 1 7.34532 2.86929 23.3912 -1.36903e-09 -1.00035e-09 5.31608e-10
21 1 7.34532 4.26604 23.3912 -1.73035e-10 -1.83906e-10 5.00756e-10
22 1 8.55494 4.96442 23.3912 1.06529e-09 3.73549e-10 -9.08421e-10
23 1 8.55494 6.36117 23.3912 -2.96702e-10 1.06489e-09 1.45665e-09
24 1 9.76456 7.05954 23.3912 3.64078e-11 1.45589e-09 8.08251e-10
25 1 12.1838 8.45629 23.3912 -1.63617e-09 2.52162e-10 -2.39608e-09
26 1 8.55494 0.774165 23.3912 1.07329e-09 -4.12387e-10 3.7013e-10
27 1 8.55494 2.17092 23.3912 -5.9094e-11 4.82279e-10 1.60003e-09
28 1 9.76456 2.86929 23.3912 1.53649e-09 -3.91973e-10 -1.31199e-09
29 1 9.76456 4.26604 23.3912 6.77594e-10 -4.29549e-10 5.73038e-10
30 1 10.9742 4.96442 23.3912 1.95136e-09 -1.7821e-09 5.48633e-10
31 1 10.9742 6.36117 23.3912 -1.04334e-09 -1.1273e-09 9.46922e-10
32 1 12.1838 7.05954 23.3912 4.65986e-10 -1.13311e-09 -3.69872e-09
