units           metal
atom_style      atomic
boundary        p p p
processors		  * * 1
read_data		    V0.data
Reading data file ...
  triclinic box = (0 0 0) to (9.8543251 8.5338058 49.981228) with tilt (4.9251584 4.447365e-06 3.5155761e-06)
WARNING: Triclinic box skew is large. LAMMPS will run inefficiently. (src/domain.cpp:220)
  1 by 1 by 1 MPI processor grid
  reading atoms ...
  32 atoms
  read_data CPU = 0.004 seconds
mass            1 12.011

# Define potentials
pair_style      lcbop
pair_coeff      * * C.lcbop C
Reading potential file C.lcbop with DATE: 2012-05-22


# Variable
variable        thermofrq equal 10
variable        Nloop equal 100     # number of loop to run
variable        binding equal pe


# Output
thermo          ${thermofrq}
thermo          10
thermo_style    custom step temp pe lx ly lz pxx pyy pzz fmax fnorm
thermo_modify   line one format float %20.16g
thermo_modify   flush yes norm no lost warn

# Minimize the system in loops
timestep        1.0e-3
variable        nr loop ${Nloop}
variable        nr loop 100
label           loopmin

# Minimize the with cg + box/relax
  fix             frb all box/relax tri 0.0 couple none
  min_style       cg
  min_modify      line quadratic
  minimize        0.0 1.0e-3 10000 10000
Neighbor list info ...
  update: every = 1 steps, delay = 0 steps, check = yes
  max neighbors/atom: 2000, page size: 100000
  master list distance cutoff = 8.6
  ghost atom cutoff = 8.6
  binsize = 4.3, bins = 4 2 12
  1 neighbor lists, perpetual/occasional/extra = 1 0 0
  (1) pair lcbop, perpetual
      attributes: full, newton on, ghost
      pair build: full/bin/ghost
      stencil: full/ghost/bin/3d
      bin: standard
WARNING: Energy due to 6 extra global DOFs will be included in minimizer energies
 (src/min.cpp:225)
Per MPI rank memory allocation (min/avg/max) = 5.149 | 5.149 | 5.149 Mbytes
   Step          Temp          PotEng           Lx             Ly             Lz            Pxx            Pyy            Pzz            Fmax          Fnorm     
         0                     0   -235.1930883053488    9.854325100500001         8.5338058206        49.9812277894   -1374.038136843468   -1370.371344197952 -8.470442380164974e-14  0.02079393101049476   0.1189553960982405
        10                     0    -235.198130909602    9.844470775399506    8.525297267366858        49.9812277894    -577.163852774208   -575.0615052100218 -8.271576704481216e-14   0.0287550237211418   0.1636158421287173
        20                     0   -235.1993223597017    9.837393249273374    8.519239242694876        49.9812277894  -0.6916104500555259  0.06624857252375936 -7.254864709294646e-14  0.01507542281444785  0.08640145727813031
        29                     0   -235.1993668171607    9.837277477264927    8.519332056146768        49.9812277894 -0.0002124148849731511 0.0004550916320011027 -1.994285902465607e-14 1.08108171188448e-05 6.101882673700727e-05
Loop time of 0.00471405 on 1 procs for 29 steps with 32 atoms

348.9% CPU use with 1 MPI tasks x no OpenMP threads

Minimization stats:
  Stopping criterion = force tolerance
  Energy initial, next-to-last, final = 
     -235.193088305349  -235.199366816621  -235.199366817161
  Force two-norm initial, final = 5.0925524 8.0270019e-05
  Force max component initial, final = 3.6046657 5.2136827e-05
  Final line search alpha, max atom move = 0.081347443 4.2411976e-06
  Iterations, force evaluations = 29 37

MPI task timing breakdown:
Section |  min time  |  avg time  |  max time  |%varavg| %total
---------------------------------------------------------------
Pair    | 0.0035383  | 0.0035383  | 0.0035383  |   0.0 | 75.06
Neigh   | 0          | 0          | 0          |   0.0 |  0.00
Comm    | 5.3281e-05 | 5.3281e-05 | 5.3281e-05 |   0.0 |  1.13
Output  | 0.00056035 | 0.00056035 | 0.00056035 |   0.0 | 11.89
Modify  | 0          | 0          | 0          |   0.0 |  0.00
Other   |            | 0.0005621  |            |       | 11.92

Nlocal:             32 ave          32 max          32 min
Histogram: 1 0 0 0 0 0 0 0 0 0
Nghost:            281 ave         281 max         281 min
Histogram: 1 0 0 0 0 0 0 0 0 0
Neighs:              0 ave           0 max           0 min
Histogram: 1 0 0 0 0 0 0 0 0 0
FullNghs:         2688 ave        2688 max        2688 min
Histogram: 1 0 0 0 0 0 0 0 0 0

Total # of neighbors = 2688
Ave neighs/atom = 84
Neighbor list builds = 0
Dangerous builds = 0

# Minimize the with fire
  unfix           frb
  min_style       fire
  minimize        0.0 1.0e-3 10000 10000
  Parameters for fire:
    dmax  delaystep dtgrow dtshrink alpha0 alphashrink tmax tmin   integrator   halfstepback   abcfire  
     0.1     20      1.1     0.5     0.25     0.99      10  0.02 eulerimplicit      yes          no     
Per MPI rank memory allocation (min/avg/max) = 4.024 | 4.024 | 4.024 Mbytes
   Step          Temp          PotEng           Lx             Ly             Lz            Pxx            Pyy            Pzz            Fmax          Fnorm     
        29                     0   -235.1993668171608    9.837277477264927    8.519332056146768        49.9812277894 -0.000212414829252502 0.0004550916055139303 -1.994275145191541e-14 1.081081724674249e-05 6.101882655928134e-05
        30  3.732102225278765e-10   -235.1993668171638    9.837277477264927    8.519332056146768        49.9812277894 -0.0005374630179133163 0.0007801320257581424 -1.952332909562762e-14 9.943832205205894e-06 5.606778255136399e-05
Loop time of 0.000930549 on 1 procs for 1 steps with 32 atoms

58.9% CPU use with 1 MPI tasks x no OpenMP threads

Minimization stats:
  Stopping criterion = force tolerance
  Energy initial, next-to-last, final = 
     -235.199366817161  -235.199366817161  -235.199366817164
  Force two-norm initial, final = 6.1018827e-05 5.6067783e-05
  Force max component initial, final = 1.0810817e-05 9.9438322e-06
  Final line search alpha, max atom move = 0 0
  Iterations, force evaluations = 1 2

MPI task timing breakdown:
Section |  min time  |  avg time  |  max time  |%varavg| %total
---------------------------------------------------------------
Pair    | 0.0003162  | 0.0003162  | 0.0003162  |   0.0 | 33.98
Neigh   | 0          | 0          | 0          |   0.0 |  0.00
Comm    | 5.353e-06  | 5.353e-06  | 5.353e-06  |   0.0 |  0.58
Output  | 0          | 0          | 0          |   0.0 |  0.00
Modify  | 0          | 0          | 0          |   0.0 |  0.00
Other   |            | 0.000609   |            |       | 65.44

Nlocal:             32 ave          32 max          32 min
Histogram: 1 0 0 0 0 0 0 0 0 0
Nghost:            281 ave         281 max         281 min
Histogram: 1 0 0 0 0 0 0 0 0 0
Neighs:              0 ave           0 max           0 min
Histogram: 1 0 0 0 0 0 0 0 0 0
FullNghs:         2688 ave        2688 max        2688 min
Histogram: 1 0 0 0 0 0 0 0 0 0

Total # of neighbors = 2688
Ave neighs/atom = 84
Neighbor list builds = 0
Dangerous builds = 0

next nr
jump ${simname}.in loopmin
jump LCBOP.in loopmin

# Minimize the with cg + box/relax
  fix             frb all box/relax tri 0.0 couple none
  min_style       cg
  min_modify      line quadratic
  minimize        0.0 1.0e-3 10000 10000
WARNING: Energy due to 6 extra global DOFs will be included in minimizer energies
 (src/min.cpp:225)
Per MPI rank memory allocation (min/avg/max) = 5.149 | 5.149 | 5.149 Mbytes
   Step          Temp          PotEng           Lx             Ly             Lz            Pxx            Pyy            Pzz            Fmax          Fnorm     
        30  3.732102225278765e-10   -235.1993668171638    9.837277477264927    8.519332056146768        49.9812277894 -0.0005374630057068929 0.0007801320523569519 -1.952346959768931e-14 9.94383236463392e-06 5.606778258016973e-05
        31  3.732102225278765e-10    -235.199366817168    9.837277453857077     8.51933208557138        49.9812277894 0.0001413238000051003 -0.0007683110554025322 -1.896263911612695e-14 6.630445153366082e-06 3.753005372350736e-05
Loop time of 0.000627535 on 1 procs for 1 steps with 32 atoms

28.4% CPU use with 1 MPI tasks x no OpenMP threads

Minimization stats:
  Stopping criterion = force tolerance
  Energy initial, next-to-last, final = 
     -235.199366817164  -235.199366817164  -235.199366817168
  Force two-norm initial, final = 7.2729075e-05 5.8874931e-05
  Force max component initial, final = 4.6257839e-05 4.5316456e-05
  Final line search alpha, max atom move = 1 4.5316456e-05
  Iterations, force evaluations = 1 2

MPI task timing breakdown:
Section |  min time  |  avg time  |  max time  |%varavg| %total
---------------------------------------------------------------
Pair    | 0.00031191 | 0.00031191 | 0.00031191 |   0.0 | 49.70
Neigh   | 0          | 0          | 0          |   0.0 |  0.00
Comm    | 4.859e-06  | 4.859e-06  | 4.859e-06  |   0.0 |  0.77
Output  | 0          | 0          | 0          |   0.0 |  0.00
Modify  | 0          | 0          | 0          |   0.0 |  0.00
Other   |            | 0.0003108  |            |       | 49.52

Nlocal:             32 ave          32 max          32 min
Histogram: 1 0 0 0 0 0 0 0 0 0
Nghost:            281 ave         281 max         281 min
Histogram: 1 0 0 0 0 0 0 0 0 0
Neighs:              0 ave           0 max           0 min
Histogram: 1 0 0 0 0 0 0 0 0 0
FullNghs:         2688 ave        2688 max        2688 min
Histogram: 1 0 0 0 0 0 0 0 0 0

Total # of neighbors = 2688
Ave neighs/atom = 84
Neighbor list builds = 0
Dangerous builds = 0

# Minimize the with fire
  unfix           frb
  min_style       fire
  minimize        0.0 1.0e-3 10000 10000
  Parameters for fire:
    dmax  delaystep dtgrow dtshrink alpha0 alphashrink tmax tmin   integrator   halfstepback   abcfire  
     0.1     20      1.1     0.5     0.25     0.99      10  0.02 eulerimplicit      yes          no     
Per MPI rank memory allocation (min/avg/max) = 4.024 | 4.024 | 4.024 Mbytes
   Step          Temp          PotEng           Lx             Ly             Lz            Pxx            Pyy            Pzz            Fmax          Fnorm     
        31                     0    -235.199366817168    9.837277453857077     8.51933208557138        49.9812277894 0.0001413226348663561 -0.000768311090551778 -1.910326796376518e-14 6.630445145816566e-06 3.753005394427582e-05
        32  1.411835842899022e-10   -235.1993668171691    9.837277453857077     8.51933208557138        49.9812277894 -0.0001255442767154401 -0.000501445931295923 -1.872907841023965e-14 6.101997790164404e-06 3.448523307456114e-05
Loop time of 0.000558921 on 1 procs for 1 steps with 32 atoms

158.7% CPU use with 1 MPI tasks x no OpenMP threads

Minimization stats:
  Stopping criterion = force tolerance
  Energy initial, next-to-last, final = 
     -235.199366817168  -235.199366817168  -235.199366817169
  Force two-norm initial, final = 3.7530054e-05 3.4485233e-05
  Force max component initial, final = 6.6304451e-06 6.1019978e-06
  Final line search alpha, max atom move = 0 0
  Iterations, force evaluations = 1 2

MPI task timing breakdown:
Section |  min time  |  avg time  |  max time  |%varavg| %total
---------------------------------------------------------------
Pair    | 0.00023603 | 0.00023603 | 0.00023603 |   0.0 | 42.23
Neigh   | 0          | 0          | 0          |   0.0 |  0.00
Comm    | 3.807e-06  | 3.807e-06  | 3.807e-06  |   0.0 |  0.68
Output  | 0          | 0          | 0          |   0.0 |  0.00
Modify  | 0          | 0          | 0          |   0.0 |  0.00
Other   |            | 0.0003191  |            |       | 57.09

Nlocal:             32 ave          32 max          32 min
Histogram: 1 0 0 0 0 0 0 0 0 0
Nghost:            281 ave         281 max         281 min
Histogram: 1 0 0 0 0 0 0 0 0 0
Neighs:              0 ave           0 max           0 min
Histogram: 1 0 0 0 0 0 0 0 0 0
FullNghs:         2688 ave        2688 max        2688 min
Histogram: 1 0 0 0 0 0 0 0 0 0

Total # of neighbors = 2688
Ave neighs/atom = 84
Neighbor list builds = 0
Dangerous builds = 0

next nr
jump ${simname}.in loopmin
jump LCBOP.in loopmin

# Minimize the with cg + box/relax
  fix             frb all box/relax tri 0.0 couple none
  min_style       cg
  min_modify      line quadratic
  minimize        0.0 1.0e-3 10000 10000
WARNING: Energy due to 6 extra global DOFs will be included in minimizer energies
 (src/min.cpp:225)
Per MPI rank memory allocation (min/avg/max) = 5.149 | 5.149 | 5.149 Mbytes
   Step          Temp          PotEng           Lx             Ly             Lz            Pxx            Pyy            Pzz            Fmax          Fnorm     
        32  1.411835842899022e-10    -235.199366817169    9.837277453857077     8.51933208557138        49.9812277894 -0.0001255443500959735 -0.0005014458862932588 -1.872920361680214e-14 6.101997766183587e-06 3.448523310170845e-05
        33  1.411835842899022e-10   -235.1993668171721    9.837277448665521    8.519332067613552        49.9812277894 -2.185389836586535e-05 0.001528246343144563 -1.825344951371803e-14 6.798064438040541e-06 3.811477750079544e-05
Loop time of 0.000510479 on 1 procs for 1 steps with 32 atoms

65.8% CPU use with 1 MPI tasks x no OpenMP threads

Minimization stats:
  Stopping criterion = force tolerance
  Energy initial, next-to-last, final = 
     -235.199366817169  -235.199366817169  -235.199366817172
  Force two-norm initial, final = 5.9800091e-05 4.6743262e-05
  Force max component initial, final = 4.8836392e-05 2.6762456e-05
  Final line search alpha, max atom move = 1 2.6762456e-05
  Iterations, force evaluations = 1 2

MPI task timing breakdown:
Section |  min time  |  avg time  |  max time  |%varavg| %total
---------------------------------------------------------------
Pair    | 0.0002328  | 0.0002328  | 0.0002328  |   0.0 | 45.60
Neigh   | 0          | 0          | 0          |   0.0 |  0.00
Comm    | 5.281e-06  | 5.281e-06  | 5.281e-06  |   0.0 |  1.03
Output  | 0          | 0          | 0          |   0.0 |  0.00
Modify  | 0          | 0          | 0          |   0.0 |  0.00
Other   |            | 0.0002724  |            |       | 53.36

Nlocal:             32 ave          32 max          32 min
Histogram: 1 0 0 0 0 0 0 0 0 0
Nghost:            281 ave         281 max         281 min
Histogram: 1 0 0 0 0 0 0 0 0 0
Neighs:              0 ave           0 max           0 min
Histogram: 1 0 0 0 0 0 0 0 0 0
FullNghs:         2688 ave        2688 max        2688 min
Histogram: 1 0 0 0 0 0 0 0 0 0

Total # of neighbors = 2688
Ave neighs/atom = 84
Neighbor list builds = 0
Dangerous builds = 0

# Minimize the with fire
  unfix           frb
  min_style       fire
  minimize        0.0 1.0e-3 10000 10000
  Parameters for fire:
    dmax  delaystep dtgrow dtshrink alpha0 alphashrink tmax tmin   integrator   halfstepback   abcfire  
     0.1     20      1.1     0.5     0.25     0.99      10  0.02 eulerimplicit      yes          no     
Per MPI rank memory allocation (min/avg/max) = 4.024 | 4.024 | 4.024 Mbytes
   Step          Temp          PotEng           Lx             Ly             Lz            Pxx            Pyy            Pzz            Fmax          Fnorm     
        33                     0   -235.1993668171721    9.837277448665521    8.519332067613552        49.9812277894 -2.185427717164314e-05 0.001528246328130318 -1.837884539186753e-14 6.798064682733695e-06 3.811477759917421e-05
        34  1.456171772758929e-10   -235.1993668171732    9.837277448665521    8.519332067613552        49.9812277894 -0.0002220150271219131 0.001728404111051768 -1.804306477864614e-14 6.255397840160271e-06 3.502242545533506e-05
Loop time of 0.000567933 on 1 procs for 1 steps with 32 atoms

60.7% CPU use with 1 MPI tasks x no OpenMP threads

Minimization stats:
  Stopping criterion = force tolerance
  Energy initial, next-to-last, final = 
     -235.199366817172  -235.199366817172  -235.199366817173
  Force two-norm initial, final = 3.8114778e-05 3.5022425e-05
  Force max component initial, final = 6.7980647e-06 6.2553978e-06
  Final line search alpha, max atom move = 0 0
  Iterations, force evaluations = 1 2

MPI task timing breakdown:
Section |  min time  |  avg time  |  max time  |%varavg| %total
---------------------------------------------------------------
Pair    | 0.00024807 | 0.00024807 | 0.00024807 |   0.0 | 43.68
Neigh   | 0          | 0          | 0          |   0.0 |  0.00
Comm    | 6.335e-06  | 6.335e-06  | 6.335e-06  |   0.0 |  1.12
Output  | 0          | 0          | 0          |   0.0 |  0.00
Modify  | 0          | 0          | 0          |   0.0 |  0.00
Other   |            | 0.0003135  |            |       | 55.21

Nlocal:             32 ave          32 max          32 min
Histogram: 1 0 0 0 0 0 0 0 0 0
Nghost:            281 ave         281 max         281 min
Histogram: 1 0 0 0 0 0 0 0 0 0
Neighs:              0 ave           0 max           0 min
Histogram: 1 0 0 0 0 0 0 0 0 0
FullNghs:         2688 ave        2688 max        2688 min
Histogram: 1 0 0 0 0 0 0 0 0 0

Total # of neighbors = 2688
Ave neighs/atom = 84
Neighbor list builds = 0
Dangerous builds = 0

next nr
jump ${simname}.in loopmin
jump LCBOP.in loopmin

# Minimize the with cg + box/relax
  fix             frb all box/relax tri 0.0 couple none
  min_style       cg
  min_modify      line quadratic
  minimize        0.0 1.0e-3 10000 10000
WARNING: Energy due to 6 extra global DOFs will be included in minimizer energies
 (src/min.cpp:225)
Per MPI rank memory allocation (min/avg/max) = 5.149 | 5.149 | 5.149 Mbytes
   Step          Temp          PotEng           Lx             Ly             Lz            Pxx            Pyy            Pzz            Fmax          Fnorm     
        34  1.456171772758929e-10   -235.1993668171732    9.837277448665521    8.519332067613552        49.9812277894 -0.0002220151341471621 0.001728404107168026 -1.804294840382512e-14 6.25539793608354e-06 3.502242542971459e-05
        35  1.456171772758929e-10   -235.1993668171752    9.837277437300862    8.519332144234745        49.9812277894 -0.0008171798772846245 -0.004021221561929569 -1.751570613711167e-14 4.056216560854864e-06 2.28647311605463e-05
Loop time of 0.000671654 on 1 procs for 1 steps with 32 atoms

34.7% CPU use with 1 MPI tasks x no OpenMP threads

Minimization stats:
  Stopping criterion = force tolerance
  Energy initial, next-to-last, final = 
     -235.199366817173  -235.199366817173  -235.199366817175
  Force two-norm initial, final = 4.2225956e-05 4.114085e-05
  Force max component initial, final = 2.3145295e-05 3.2475864e-05
  Final line search alpha, max atom move = 1 3.2475864e-05
  Iterations, force evaluations = 1 2

MPI task timing breakdown:
Section |  min time  |  avg time  |  max time  |%varavg| %total
---------------------------------------------------------------
Pair    | 0.0002251  | 0.0002251  | 0.0002251  |   0.0 | 33.51
Neigh   | 0          | 0          | 0          |   0.0 |  0.00
Comm    | 3.997e-06  | 3.997e-06  | 3.997e-06  |   0.0 |  0.60
Output  | 0          | 0          | 0          |   0.0 |  0.00
Modify  | 0          | 0          | 0          |   0.0 |  0.00
Other   |            | 0.0004426  |            |       | 65.89

Nlocal:             32 ave          32 max          32 min
Histogram: 1 0 0 0 0 0 0 0 0 0
Nghost:            281 ave         281 max         281 min
Histogram: 1 0 0 0 0 0 0 0 0 0
Neighs:              0 ave           0 max           0 min
Histogram: 1 0 0 0 0 0 0 0 0 0
FullNghs:         2688 ave        2688 max        2688 min
Histogram: 1 0 0 0 0 0 0 0 0 0

Total # of neighbors = 2688
Ave neighs/atom = 84
Neighbor list builds = 0
Dangerous builds = 0

# Minimize the with fire
  unfix           frb
  min_style       fire
  minimize        0.0 1.0e-3 10000 10000
  Parameters for fire:
    dmax  delaystep dtgrow dtshrink alpha0 alphashrink tmax tmin   integrator   halfstepback   abcfire  
     0.1     20      1.1     0.5     0.25     0.99      10  0.02 eulerimplicit      yes          no     
Per MPI rank memory allocation (min/avg/max) = 4.024 | 4.024 | 4.024 Mbytes
   Step          Temp          PotEng           Lx             Ly             Lz            Pxx            Pyy            Pzz            Fmax          Fnorm     
        35                     0   -235.1993668171752    9.837277437300862    8.519332144234745        49.9812277894 -0.0008171803233995508 -0.004021221671203374 -1.762827256574709e-14 4.056216590164752e-06 2.286473096832113e-05
        36  5.240322551313879e-11    -235.199366817175    9.837277437300862    8.519332144234745        49.9812277894 -0.000997680583114645 -0.003840722000153263 -1.733073263027627e-14 3.735374157542992e-06 2.101010634964843e-05
Loop time of 0.000587095 on 1 procs for 1 steps with 32 atoms

10.4% CPU use with 1 MPI tasks x no OpenMP threads

Minimization stats:
  Stopping criterion = force tolerance
  Energy initial, next-to-last, final = 
     -235.199366817175  -235.199366817175  -235.199366817175
  Force two-norm initial, final = 2.2864731e-05 2.1010106e-05
  Force max component initial, final = 4.0562166e-06 3.7353742e-06
  Final line search alpha, max atom move = 0 0
  Iterations, force evaluations = 1 2

MPI task timing breakdown:
Section |  min time  |  avg time  |  max time  |%varavg| %total
---------------------------------------------------------------
Pair    | 0.00025149 | 0.00025149 | 0.00025149 |   0.0 | 42.84
Neigh   | 0          | 0          | 0          |   0.0 |  0.00
Comm    | 4.08e-06   | 4.08e-06   | 4.08e-06   |   0.0 |  0.69
Output  | 0          | 0          | 0          |   0.0 |  0.00
Modify  | 0          | 0          | 0          |   0.0 |  0.00
Other   |            | 0.0003315  |            |       | 56.47

Nlocal:             32 ave          32 max          32 min
Histogram: 1 0 0 0 0 0 0 0 0 0
Nghost:            281 ave         281 max         281 min
Histogram: 1 0 0 0 0 0 0 0 0 0
Neighs:              0 ave           0 max           0 min
Histogram: 1 0 0 0 0 0 0 0 0 0
FullNghs:         2688 ave        2688 max        2688 min
Histogram: 1 0 0 0 0 0 0 0 0 0

Total # of neighbors = 2688
Ave neighs/atom = 84
Neighbor list builds = 0
Dangerous builds = 0

next nr
jump ${simname}.in loopmin
jump LCBOP.in loopmin

# Minimize the with cg + box/relax
  fix             frb all box/relax tri 0.0 couple none
  min_style       cg
  min_modify      line quadratic
  minimize        0.0 1.0e-3 10000 10000
WARNING: Energy due to 6 extra global DOFs will be included in minimizer energies
 (src/min.cpp:225)
Per MPI rank memory allocation (min/avg/max) = 5.149 | 5.149 | 5.149 Mbytes
   Step          Temp          PotEng           Lx             Ly             Lz            Pxx            Pyy            Pzz            Fmax          Fnorm     
        36  5.240322551313879e-11    -235.199366817175    9.837277437300862    8.519332144234745        49.9812277894 -0.0009976805588865884 -0.003840722021233255 -1.733059982292915e-14 3.735373981239576e-06 2.101010608177995e-05
        37  5.240322551313879e-11   -235.1993668171763    9.837277405006773    8.519332036569644        49.9812277894 0.002390206849012441 0.005658040487176535 -1.703255774075153e-14 4.230292405260627e-06 2.345491965573636e-05
Loop time of 0.000581948 on 1 procs for 1 steps with 32 atoms

10.8% CPU use with 1 MPI tasks x no OpenMP threads

Minimization stats:
  Stopping criterion = force tolerance
  Energy initial, next-to-last, final = 
     -235.199366817175  -235.199366817175  -235.199366817176
  Force two-norm initial, final = 4.1793482e-05 2.9941689e-05
  Force max component initial, final = 3.4606926e-05 1.4792551e-05
  Final line search alpha, max atom move = 1 1.4792551e-05
  Iterations, force evaluations = 1 2

MPI task timing breakdown:
Section |  min time  |  avg time  |  max time  |%varavg| %total
---------------------------------------------------------------
Pair    | 0.00025435 | 0.00025435 | 0.00025435 |   0.0 | 43.71
Neigh   | 0          | 0          | 0          |   0.0 |  0.00
Comm    | 5.142e-06  | 5.142e-06  | 5.142e-06  |   0.0 |  0.88
Output  | 0          | 0          | 0          |   0.0 |  0.00
Modify  | 0          | 0          | 0          |   0.0 |  0.00
Other   |            | 0.0003225  |            |       | 55.41

Nlocal:             32 ave          32 max          32 min
Histogram: 1 0 0 0 0 0 0 0 0 0
Nghost:            281 ave         281 max         281 min
Histogram: 1 0 0 0 0 0 0 0 0 0
Neighs:              0 ave           0 max           0 min
Histogram: 1 0 0 0 0 0 0 0 0 0
FullNghs:         2688 ave        2688 max        2688 min
Histogram: 1 0 0 0 0 0 0 0 0 0

Total # of neighbors = 2688
Ave neighs/atom = 84
Neighbor list builds = 0
Dangerous builds = 0

# Minimize the with fire
  unfix           frb
  min_style       fire
  minimize        0.0 1.0e-3 10000 10000
  Parameters for fire:
    dmax  delaystep dtgrow dtshrink alpha0 alphashrink tmax tmin   integrator   halfstepback   abcfire  
     0.1     20      1.1     0.5     0.25     0.99      10  0.02 eulerimplicit      yes          no     
Per MPI rank memory allocation (min/avg/max) = 4.024 | 4.024 | 4.024 Mbytes
   Step          Temp          PotEng           Lx             Ly             Lz            Pxx            Pyy            Pzz            Fmax          Fnorm     
        37                     0   -235.1993668171762    9.837277405006773    8.519332036569644        49.9812277894 0.002390206556762924 0.005658040466323551 -1.713236190899436e-14 4.230292429241445e-06 2.345491967517127e-05
        38  5.514342354049615e-11   -235.1993668171771    9.837277405006773    8.519332036569644        49.9812277894 0.002276373324286839 0.005771872895768483 -1.685959720529392e-14 3.894867619536058e-06 2.155230591545366e-05
Loop time of 0.000534901 on 1 procs for 1 steps with 32 atoms

9.3% CPU use with 1 MPI tasks x no OpenMP threads

Minimization stats:
  Stopping criterion = force tolerance
  Energy initial, next-to-last, final = 
     -235.199366817176  -235.199366817176  -235.199366817177
  Force two-norm initial, final = 2.345492e-05 2.1552306e-05
  Force max component initial, final = 4.2302924e-06 3.8948676e-06
  Final line search alpha, max atom move = 0 0
  Iterations, force evaluations = 1 2

MPI task timing breakdown:
Section |  min time  |  avg time  |  max time  |%varavg| %total
---------------------------------------------------------------
Pair    | 0.00021308 | 0.00021308 | 0.00021308 |   0.0 | 39.83
Neigh   | 0          | 0          | 0          |   0.0 |  0.00
Comm    | 3.685e-06  | 3.685e-06  | 3.685e-06  |   0.0 |  0.69
Output  | 0          | 0          | 0          |   0.0 |  0.00
Modify  | 0          | 0          | 0          |   0.0 |  0.00
Other   |            | 0.0003181  |            |       | 59.48

Nlocal:             32 ave          32 max          32 min
Histogram: 1 0 0 0 0 0 0 0 0 0
Nghost:            281 ave         281 max         281 min
Histogram: 1 0 0 0 0 0 0 0 0 0
Neighs:              0 ave           0 max           0 min
Histogram: 1 0 0 0 0 0 0 0 0 0
FullNghs:         2688 ave        2688 max        2688 min
Histogram: 1 0 0 0 0 0 0 0 0 0

Total # of neighbors = 2688
Ave neighs/atom = 84
Neighbor list builds = 0
Dangerous builds = 0

next nr
jump ${simname}.in loopmin
jump LCBOP.in loopmin

# Minimize the with cg + box/relax
  fix             frb all box/relax tri 0.0 couple none
  min_style       cg
  min_modify      line quadratic
  minimize        0.0 1.0e-3 10000 10000
WARNING: Energy due to 6 extra global DOFs will be included in minimizer energies
 (src/min.cpp:225)
Per MPI rank memory allocation (min/avg/max) = 5.149 | 5.149 | 5.149 Mbytes
   Step          Temp          PotEng           Lx             Ly             Lz            Pxx            Pyy            Pzz            Fmax          Fnorm     
        38  5.514342354049615e-11   -235.1993668171771    9.837277405006773    8.519332036569644        49.9812277894  0.00227637321161438 0.005771872756567879 -1.685947941165868e-14 3.894867548481784e-06 2.155230562065579e-05
        39  5.514342354049615e-11   -235.1993668171774    9.837277470691861    8.519332180804664        49.9812277894 -0.004360039542446621 -0.006700411111695154 -1.661507291481164e-14 3.222952524861711e-06 1.796862442132446e-05
Loop time of 0.000665141 on 1 procs for 1 steps with 32 atoms

9.0% CPU use with 1 MPI tasks x no OpenMP threads

Minimization stats:
  Stopping criterion = force tolerance
  Energy initial, next-to-last, final = 
     -235.199366817177  -235.199366817177  -235.199366817177
  Force two-norm initial, final = 2.7913232e-05 2.8577951e-05
  Force max component initial, final = 1.5090158e-05 1.7517756e-05
  Final line search alpha, max atom move = 1 1.7517756e-05
  Iterations, force evaluations = 1 2

MPI task timing breakdown:
Section |  min time  |  avg time  |  max time  |%varavg| %total
---------------------------------------------------------------
Pair    | 0.00023821 | 0.00023821 | 0.00023821 |   0.0 | 35.81
Neigh   | 0          | 0          | 0          |   0.0 |  0.00
Comm    | 4.111e-06  | 4.111e-06  | 4.111e-06  |   0.0 |  0.62
Output  | 0          | 0          | 0          |   0.0 |  0.00
Modify  | 0          | 0          | 0          |   0.0 |  0.00
Other   |            | 0.0004228  |            |       | 63.57

Nlocal:             32 ave          32 max          32 min
Histogram: 1 0 0 0 0 0 0 0 0 0
Nghost:            281 ave         281 max         281 min
Histogram: 1 0 0 0 0 0 0 0 0 0
Neighs:              0 ave           0 max           0 min
Histogram: 1 0 0 0 0 0 0 0 0 0
FullNghs:         2688 ave        2688 max        2688 min
Histogram: 1 0 0 0 0 0 0 0 0 0

Total # of neighbors = 2688
Ave neighs/atom = 84
Neighbor list builds = 0
Dangerous builds = 0

# Minimize the with fire
  unfix           frb
  min_style       fire
  minimize        0.0 1.0e-3 10000 10000
  Parameters for fire:
    dmax  delaystep dtgrow dtshrink alpha0 alphashrink tmax tmin   integrator   halfstepback   abcfire  
     0.1     20      1.1     0.5     0.25     0.99      10  0.02 eulerimplicit      yes          no     
Per MPI rank memory allocation (min/avg/max) = 4.024 | 4.024 | 4.024 Mbytes
   Step          Temp          PotEng           Lx             Ly             Lz            Pxx            Pyy            Pzz            Fmax          Fnorm     
        39                     0   -235.1993668171773    9.837277470691861    8.519332180804664        49.9812277894 -0.004360039787190351  -0.0067004109835963 -1.670646870581764e-14 3.222952407622159e-06 1.79686241627006e-05
        40  3.236349968547451e-11   -235.1993668171776    9.837277470691861    8.519332180804664        49.9812277894 -0.004486685895905222 -0.006573765172474237 -1.645405347041432e-14 2.96886708994748e-06 1.651132744130345e-05
Loop time of 0.000695325 on 1 procs for 1 steps with 32 atoms

9.2% CPU use with 1 MPI tasks x no OpenMP threads

Minimization stats:
  Stopping criterion = force tolerance
  Energy initial, next-to-last, final = 
     -235.199366817177  -235.199366817177  -235.199366817178
  Force two-norm initial, final = 1.7968624e-05 1.6511327e-05
  Force max component initial, final = 3.2229524e-06 2.9688671e-06
  Final line search alpha, max atom move = 0 0
  Iterations, force evaluations = 1 2

MPI task timing breakdown:
Section |  min time  |  avg time  |  max time  |%varavg| %total
---------------------------------------------------------------
Pair    | 0.00027132 | 0.00027132 | 0.00027132 |   0.0 | 39.02
Neigh   | 0          | 0          | 0          |   0.0 |  0.00
Comm    | 4.3e-06    | 4.3e-06    | 4.3e-06    |   0.0 |  0.62
Output  | 0          | 0          | 0          |   0.0 |  0.00
Modify  | 0          | 0          | 0          |   0.0 |  0.00
Other   |            | 0.0004197  |            |       | 60.36

Nlocal:             32 ave          32 max          32 min
Histogram: 1 0 0 0 0 0 0 0 0 0
Nghost:            281 ave         281 max         281 min
Histogram: 1 0 0 0 0 0 0 0 0 0
Neighs:              0 ave           0 max           0 min
Histogram: 1 0 0 0 0 0 0 0 0 0
FullNghs:         2688 ave        2688 max        2688 min
Histogram: 1 0 0 0 0 0 0 0 0 0

Total # of neighbors = 2688
Ave neighs/atom = 84
Neighbor list builds = 0
Dangerous builds = 0

next nr
jump ${simname}.in loopmin
jump LCBOP.in loopmin

# Minimize the with cg + box/relax
  fix             frb all box/relax tri 0.0 couple none
  min_style       cg
  min_modify      line quadratic
  minimize        0.0 1.0e-3 10000 10000
WARNING: Energy due to 6 extra global DOFs will be included in minimizer energies
 (src/min.cpp:225)
Per MPI rank memory allocation (min/avg/max) = 5.149 | 5.149 | 5.149 Mbytes
   Step          Temp          PotEng           Lx             Ly             Lz            Pxx            Pyy            Pzz            Fmax          Fnorm     
        40  3.236349968547451e-11   -235.1993668171776    9.837277470691861    8.519332180804664        49.9812277894  -0.0044866858800521 -0.006573765117479394 -1.645402189316839e-14 2.968866912755885e-06 1.651132754587905e-05
        41  3.236349968547451e-11   -235.1993668171781    9.837277382780458    8.519332069256006        49.9812277894 0.003076651952891012 0.003694845954660017 -1.629984584106177e-14 2.990931200486102e-06 1.650552626068808e-05
Loop time of 0.000762344 on 1 procs for 1 steps with 32 atoms

10.0% CPU use with 1 MPI tasks x no OpenMP threads

Minimization stats:
  Stopping criterion = force tolerance
  Energy initial, next-to-last, final = 
     -235.199366817178  -235.199366817178  -235.199366817178
  Force two-norm initial, final = 2.8123254e-05 2.0786646e-05
  Force max component initial, final = 1.7186649e-05 9.6599164e-06
  Final line search alpha, max atom move = 1 9.6599164e-06
  Iterations, force evaluations = 1 2

MPI task timing breakdown:
Section |  min time  |  avg time  |  max time  |%varavg| %total
---------------------------------------------------------------
Pair    | 0.00031426 | 0.00031426 | 0.00031426 |   0.0 | 41.22
Neigh   | 0          | 0          | 0          |   0.0 |  0.00
Comm    | 5.53e-06   | 5.53e-06   | 5.53e-06   |   0.0 |  0.73
Output  | 0          | 0          | 0          |   0.0 |  0.00
Modify  | 0          | 0          | 0          |   0.0 |  0.00
Other   |            | 0.0004426  |            |       | 58.05

Nlocal:             32 ave          32 max          32 min
Histogram: 1 0 0 0 0 0 0 0 0 0
Nghost:            281 ave         281 max         281 min
Histogram: 1 0 0 0 0 0 0 0 0 0
Neighs:              0 ave           0 max           0 min
Histogram: 1 0 0 0 0 0 0 0 0 0
FullNghs:         2688 ave        2688 max        2688 min
Histogram: 1 0 0 0 0 0 0 0 0 0

Total # of neighbors = 2688
Ave neighs/atom = 84
Neighbor list builds = 0
Dangerous builds = 0

# Minimize the with fire
  unfix           frb
  min_style       fire
  minimize        0.0 1.0e-3 10000 10000
  Parameters for fire:
    dmax  delaystep dtgrow dtshrink alpha0 alphashrink tmax tmin   integrator   halfstepback   abcfire  
     0.1     20      1.1     0.5     0.25     0.99      10  0.02 eulerimplicit      yes          no     
Per MPI rank memory allocation (min/avg/max) = 4.024 | 4.024 | 4.024 Mbytes
   Step          Temp          PotEng           Lx             Ly             Lz            Pxx            Pyy            Pzz            Fmax          Fnorm     
        41                     0    -235.199366817178    9.837277382780458    8.519332069256006        49.9812277894  0.00307665186844175 0.003694845951741344 -1.638451293986213e-14 2.990931129875918e-06 1.650552603270466e-05
        42  2.730766528014616e-11   -235.1993668171783    9.837277382780458    8.519332069256006        49.9812277894 0.002982984386067384 0.003788513120200605 -1.61472963082472e-14 2.755362387141247e-06 1.516695729554776e-05
Loop time of 0.000750916 on 1 procs for 1 steps with 32 atoms

8.9% CPU use with 1 MPI tasks x no OpenMP threads

Minimization stats:
  Stopping criterion = force tolerance
  Energy initial, next-to-last, final = 
     -235.199366817178  -235.199366817178  -235.199366817178
  Force two-norm initial, final = 1.6505526e-05 1.5166957e-05
  Force max component initial, final = 2.9909311e-06 2.7553624e-06
  Final line search alpha, max atom move = 0 0
  Iterations, force evaluations = 1 2

MPI task timing breakdown:
Section |  min time  |  avg time  |  max time  |%varavg| %total
---------------------------------------------------------------
Pair    | 0.00027677 | 0.00027677 | 0.00027677 |   0.0 | 36.86
Neigh   | 0          | 0          | 0          |   0.0 |  0.00
Comm    | 5.687e-06  | 5.687e-06  | 5.687e-06  |   0.0 |  0.76
Output  | 0          | 0          | 0          |   0.0 |  0.00
Modify  | 0          | 0          | 0          |   0.0 |  0.00
Other   |            | 0.0004685  |            |       | 62.38

Nlocal:             32 ave          32 max          32 min
Histogram: 1 0 0 0 0 0 0 0 0 0
Nghost:            281 ave         281 max         281 min
Histogram: 1 0 0 0 0 0 0 0 0 0
Neighs:              0 ave           0 max           0 min
Histogram: 1 0 0 0 0 0 0 0 0 0
FullNghs:         2688 ave        2688 max        2688 min
Histogram: 1 0 0 0 0 0 0 0 0 0

Total # of neighbors = 2688
Ave neighs/atom = 84
Neighbor list builds = 0
Dangerous builds = 0

next nr
jump ${simname}.in loopmin
jump LCBOP.in loopmin

# Minimize the with cg + box/relax
  fix             frb all box/relax tri 0.0 couple none
  min_style       cg
  min_modify      line quadratic
  minimize        0.0 1.0e-3 10000 10000
WARNING: Energy due to 6 extra global DOFs will be included in minimizer energies
 (src/min.cpp:225)
Per MPI rank memory allocation (min/avg/max) = 5.149 | 5.149 | 5.149 Mbytes
   Step          Temp          PotEng           Lx             Ly             Lz            Pxx            Pyy            Pzz            Fmax          Fnorm     
        42  2.730766528014616e-11   -235.1993668171782    9.837277382780458    8.519332069256006        49.9812277894 0.002982984498282677 0.003788513056723089 -1.614712295348889e-14 2.755362212170098e-06 1.516695702535651e-05
        43  2.730766528014616e-11   -235.1993668171784     9.83727746522945    8.519332159940657        49.9812277894 -0.004155889013478069 -0.004472784593122942 -1.594303507147328e-14 2.383271284767119e-06 1.310920693341369e-05
Loop time of 0.000773293 on 1 procs for 1 steps with 32 atoms

11.1% CPU use with 1 MPI tasks x no OpenMP threads

Minimization stats:
  Stopping criterion = force tolerance
  Energy initial, next-to-last, final = 
     -235.199366817178  -235.199366817178  -235.199366817178
  Force two-norm initial, final = 1.9724172e-05 2.1580998e-05
  Force max component initial, final = 9.9048024e-06 1.1693783e-05
  Final line search alpha, max atom move = 1 1.1693783e-05
  Iterations, force evaluations = 1 2

MPI task timing breakdown:
Section |  min time  |  avg time  |  max time  |%varavg| %total
---------------------------------------------------------------
Pair    | 0.00034959 | 0.00034959 | 0.00034959 |   0.0 | 45.21
Neigh   | 0          | 0          | 0          |   0.0 |  0.00
Comm    | 6.218e-06  | 6.218e-06  | 6.218e-06  |   0.0 |  0.80
Output  | 0          | 0          | 0          |   0.0 |  0.00
Modify  | 0          | 0          | 0          |   0.0 |  0.00
Other   |            | 0.0004175  |            |       | 53.99

Nlocal:             32 ave          32 max          32 min
Histogram: 1 0 0 0 0 0 0 0 0 0
Nghost:            281 ave         281 max         281 min
Histogram: 1 0 0 0 0 0 0 0 0 0
Neighs:              0 ave           0 max           0 min
Histogram: 1 0 0 0 0 0 0 0 0 0
FullNghs:         2688 ave        2688 max        2688 min
Histogram: 1 0 0 0 0 0 0 0 0 0

Total # of neighbors = 2688
Ave neighs/atom = 84
Neighbor list builds = 0
Dangerous builds = 0

# Minimize the with fire
  unfix           frb
  min_style       fire
  minimize        0.0 1.0e-3 10000 10000
  Parameters for fire:
    dmax  delaystep dtgrow dtshrink alpha0 alphashrink tmax tmin   integrator   halfstepback   abcfire  
     0.1     20      1.1     0.5     0.25     0.99      10  0.02 eulerimplicit      yes          no     
Per MPI rank memory allocation (min/avg/max) = 4.024 | 4.024 | 4.024 Mbytes
   Step          Temp          PotEng           Lx             Ly             Lz            Pxx            Pyy            Pzz            Fmax          Fnorm     
        43                     0   -235.1993668171784     9.83727746522945    8.519332159940657        49.9812277894 -0.00415588905480388 -0.004472784665360227 -1.602264838328617e-14 2.383271384243102e-06 1.310920685659242e-05
        44  1.722577044605137e-11   -235.1993668171786     9.83727746522945    8.519332159940657        49.9812277894 -0.004240096267282042 -0.004388577741161463 -1.580178784726221e-14 2.196655420227955e-06 1.204635152400628e-05
Loop time of 0.000687876 on 1 procs for 1 steps with 32 atoms

8.6% CPU use with 1 MPI tasks x no OpenMP threads

Minimization stats:
  Stopping criterion = force tolerance
  Energy initial, next-to-last, final = 
     -235.199366817178  -235.199366817178  -235.199366817179
  Force two-norm initial, final = 1.3109207e-05 1.2046352e-05
  Force max component initial, final = 2.3832714e-06 2.1966554e-06
  Final line search alpha, max atom move = 0 0
  Iterations, force evaluations = 1 2

MPI task timing breakdown:
Section |  min time  |  avg time  |  max time  |%varavg| %total
---------------------------------------------------------------
Pair    | 0.00024911 | 0.00024911 | 0.00024911 |   0.0 | 36.21
Neigh   | 0          | 0          | 0          |   0.0 |  0.00
Comm    | 4.204e-06  | 4.204e-06  | 4.204e-06  |   0.0 |  0.61
Output  | 0          | 0          | 0          |   0.0 |  0.00
Modify  | 0          | 0          | 0          |   0.0 |  0.00
Other   |            | 0.0004346  |            |       | 63.17

Nlocal:             32 ave          32 max          32 min
Histogram: 1 0 0 0 0 0 0 0 0 0
Nghost:            281 ave         281 max         281 min
Histogram: 1 0 0 0 0 0 0 0 0 0
Neighs:              0 ave           0 max           0 min
Histogram: 1 0 0 0 0 0 0 0 0 0
FullNghs:         2688 ave        2688 max        2688 min
Histogram: 1 0 0 0 0 0 0 0 0 0

Total # of neighbors = 2688
Ave neighs/atom = 84
Neighbor list builds = 0
Dangerous builds = 0

next nr
jump ${simname}.in loopmin
jump LCBOP.in loopmin

# Minimize the with cg + box/relax
  fix             frb all box/relax tri 0.0 couple none
  min_style       cg
  min_modify      line quadratic
  minimize        0.0 1.0e-3 10000 10000
WARNING: Energy due to 6 extra global DOFs will be included in minimizer energies
 (src/min.cpp:225)
Per MPI rank memory allocation (min/avg/max) = 5.149 | 5.149 | 5.149 Mbytes
   Step          Temp          PotEng           Lx             Ly             Lz            Pxx            Pyy            Pzz            Fmax          Fnorm     
        44  1.722577044605137e-11   -235.1993668171787     9.83727746522945    8.519332159940657        49.9812277894 -0.004240096295234761 -0.004388577756566461 -1.580194603999553e-14 2.196655476627285e-06 1.204635163037284e-05
        45  1.722577044605137e-11   -235.1993668171789    9.837277385861293    8.519332088798834        49.9812277894 0.002250310997584102  0.00241089542525743 -1.567265950601436e-14 2.24198105502893e-06 1.22702942201431e-05
Loop time of 0.000748425 on 1 procs for 1 steps with 32 atoms

9.1% CPU use with 1 MPI tasks x no OpenMP threads

Minimization stats:
  Stopping criterion = force tolerance
  Energy initial, next-to-last, final = 
     -235.199366817179  -235.199366817179  -235.199366817179
  Force two-norm initial, final = 2.1347154e-05 1.5058626e-05
  Force max component initial, final = 1.147363e-05 6.3031175e-06
  Final line search alpha, max atom move = 1 6.3031175e-06
  Iterations, force evaluations = 1 2

MPI task timing breakdown:
Section |  min time  |  avg time  |  max time  |%varavg| %total
---------------------------------------------------------------
Pair    | 0.00028699 | 0.00028699 | 0.00028699 |   0.0 | 38.35
Neigh   | 0          | 0          | 0          |   0.0 |  0.00
Comm    | 4.562e-06  | 4.562e-06  | 4.562e-06  |   0.0 |  0.61
Output  | 0          | 0          | 0          |   0.0 |  0.00
Modify  | 0          | 0          | 0          |   0.0 |  0.00
Other   |            | 0.0004569  |            |       | 61.04

Nlocal:             32 ave          32 max          32 min
Histogram: 1 0 0 0 0 0 0 0 0 0
Nghost:            281 ave         281 max         281 min
Histogram: 1 0 0 0 0 0 0 0 0 0
Neighs:              0 ave           0 max           0 min
Histogram: 1 0 0 0 0 0 0 0 0 0
FullNghs:         2688 ave        2688 max        2688 min
Histogram: 1 0 0 0 0 0 0 0 0 0

Total # of neighbors = 2688
Ave neighs/atom = 84
Neighbor list builds = 0
Dangerous builds = 0

# Minimize the with fire
  unfix           frb
  min_style       fire
  minimize        0.0 1.0e-3 10000 10000
  Parameters for fire:
    dmax  delaystep dtgrow dtshrink alpha0 alphashrink tmax tmin   integrator   halfstepback   abcfire  
     0.1     20      1.1     0.5     0.25     0.99      10  0.02 eulerimplicit      yes          no     
Per MPI rank memory allocation (min/avg/max) = 4.024 | 4.024 | 4.024 Mbytes
   Step          Temp          PotEng           Lx             Ly             Lz            Pxx            Pyy            Pzz            Fmax          Fnorm     
        45                     0   -235.1993668171789    9.837277385861293    8.519332088798834        49.9812277894 0.002250311028421786 0.002410895364476198 -1.574672991403169e-14 2.241980988859638e-06 1.227029419288028e-05
        46  1.509161707302075e-11   -235.1993668171789    9.837277385861293    8.519332088798834        49.9812277894 0.002179559722575167  0.00248164640547638 -1.553819955315577e-14 2.066553538071503e-06 1.12755011874333e-05
Loop time of 0.000785678 on 1 procs for 1 steps with 32 atoms

0.0% CPU use with 1 MPI tasks x no OpenMP threads

Minimization stats:
  Stopping criterion = force tolerance
  Energy initial, next-to-last, final = 
     -235.199366817179  -235.199366817179  -235.199366817179
  Force two-norm initial, final = 1.2270294e-05 1.1275501e-05
  Force max component initial, final = 2.241981e-06 2.0665535e-06
  Final line search alpha, max atom move = 0 0
  Iterations, force evaluations = 1 2

MPI task timing breakdown:
Section |  min time  |  avg time  |  max time  |%varavg| %total
---------------------------------------------------------------
Pair    | 0.00032374 | 0.00032374 | 0.00032374 |   0.0 | 41.21
Neigh   | 0          | 0          | 0          |   0.0 |  0.00
Comm    | 6.889e-06  | 6.889e-06  | 6.889e-06  |   0.0 |  0.88
Output  | 0          | 0          | 0          |   0.0 |  0.00
Modify  | 0          | 0          | 0          |   0.0 |  0.00
Other   |            | 0.000455   |            |       | 57.92

Nlocal:             32 ave          32 max          32 min
Histogram: 1 0 0 0 0 0 0 0 0 0
Nghost:            281 ave         281 max         281 min
Histogram: 1 0 0 0 0 0 0 0 0 0
Neighs:              0 ave           0 max           0 min
Histogram: 1 0 0 0 0 0 0 0 0 0
FullNghs:         2688 ave        2688 max        2688 min
Histogram: 1 0 0 0 0 0 0 0 0 0

Total # of neighbors = 2688
Ave neighs/atom = 84
Neighbor list builds = 0
Dangerous builds = 0

next nr
jump ${simname}.in loopmin
jump LCBOP.in loopmin

# Minimize the with cg + box/relax
  fix             frb all box/relax tri 0.0 couple none
  min_style       cg
  min_modify      line quadratic
  minimize        0.0 1.0e-3 10000 10000
WARNING: Energy due to 6 extra global DOFs will be included in minimizer energies
 (src/min.cpp:225)
Per MPI rank memory allocation (min/avg/max) = 5.149 | 5.149 | 5.149 Mbytes
   Step          Temp          PotEng           Lx             Ly             Lz            Pxx            Pyy            Pzz            Fmax          Fnorm     
        46  1.509161707302075e-11   -235.1993668171788    9.837277385861293    8.519332088798834        49.9812277894 0.002179559715998701  0.00248164644078885 -1.553826028528473e-14 2.066553485668976e-06 1.127550121923987e-05
        47  1.509161707302075e-11   -235.1993668171789    9.837277450454229    8.519332152491115        49.9812277894 -0.00332490704576056 -0.003380236864700909 -1.534565441352106e-14 1.760650999216296e-06 9.568952647496389e-06
Loop time of 0.000828389 on 1 procs for 1 steps with 32 atoms

0.0% CPU use with 1 MPI tasks x no OpenMP threads

Minimization stats:
  Stopping criterion = force tolerance
  Energy initial, next-to-last, final = 
     -235.199366817179  -235.199366817179  -235.199366817179
  Force two-norm initial, final = 1.420367e-05 1.6435698e-05
  Force max component initial, final = 6.488091e-06 8.8373929e-06
  Final line search alpha, max atom move = 1 8.8373929e-06
  Iterations, force evaluations = 1 2

MPI task timing breakdown:
Section |  min time  |  avg time  |  max time  |%varavg| %total
---------------------------------------------------------------
Pair    | 0.00033161 | 0.00033161 | 0.00033161 |   0.0 | 40.03
Neigh   | 0          | 0          | 0          |   0.0 |  0.00
Comm    | 6.283e-06  | 6.283e-06  | 6.283e-06  |   0.0 |  0.76
Output  | 0          | 0          | 0          |   0.0 |  0.00
Modify  | 0          | 0          | 0          |   0.0 |  0.00
Other   |            | 0.0004905  |            |       | 59.21

Nlocal:             32 ave          32 max          32 min
Histogram: 1 0 0 0 0 0 0 0 0 0
Nghost:            281 ave         281 max         281 min
Histogram: 1 0 0 0 0 0 0 0 0 0
Neighs:              0 ave           0 max           0 min
Histogram: 1 0 0 0 0 0 0 0 0 0
FullNghs:         2688 ave        2688 max        2688 min
Histogram: 1 0 0 0 0 0 0 0 0 0

Total # of neighbors = 2688
Ave neighs/atom = 84
Neighbor list builds = 0
Dangerous builds = 0

# Minimize the with fire
  unfix           frb
  min_style       fire
  minimize        0.0 1.0e-3 10000 10000
  Parameters for fire:
    dmax  delaystep dtgrow dtshrink alpha0 alphashrink tmax tmin   integrator   halfstepback   abcfire  
     0.1     20      1.1     0.5     0.25     0.99      10  0.02 eulerimplicit      yes          no     
Per MPI rank memory allocation (min/avg/max) = 4.024 | 4.024 | 4.024 Mbytes
   Step          Temp          PotEng           Lx             Ly             Lz            Pxx            Pyy            Pzz            Fmax          Fnorm     
        47                     0   -235.1993668171789    9.837277450454229    8.519332152491115        49.9812277894 -0.003324907050079972 -0.003380236785508452 -1.54154615592214e-14 1.76065090684574e-06 9.568952658532509e-06
        48  9.178139142090749e-12   -235.1993668171791    9.837277450454229    8.519332152491115        49.9812277894 -0.003385359408106716 -0.003319784786320312 -1.522160736588041e-14 1.62394373592889e-06 8.793506522835824e-06
Loop time of 0.000850519 on 1 procs for 1 steps with 32 atoms

0.0% CPU use with 1 MPI tasks x no OpenMP threads

Minimization stats:
  Stopping criterion = force tolerance
  Energy initial, next-to-last, final = 
     -235.199366817179  -235.199366817179  -235.199366817179
  Force two-norm initial, final = 9.5689527e-06 8.7935065e-06
  Force max component initial, final = 1.7606509e-06 1.6239437e-06
  Final line search alpha, max atom move = 0 0
  Iterations, force evaluations = 1 2

MPI task timing breakdown:
Section |  min time  |  avg time  |  max time  |%varavg| %total
---------------------------------------------------------------
Pair    | 0.0003463  | 0.0003463  | 0.0003463  |   0.0 | 40.72
Neigh   | 0          | 0          | 0          |   0.0 |  0.00
Comm    | 7.257e-06  | 7.257e-06  | 7.257e-06  |   0.0 |  0.85
Output  | 0          | 0          | 0          |   0.0 |  0.00
Modify  | 0          | 0          | 0          |   0.0 |  0.00
Other   |            | 0.000497   |            |       | 58.43

Nlocal:             32 ave          32 max          32 min
Histogram: 1 0 0 0 0 0 0 0 0 0
Nghost:            281 ave         281 max         281 min
Histogram: 1 0 0 0 0 0 0 0 0 0
Neighs:              0 ave           0 max           0 min
Histogram: 1 0 0 0 0 0 0 0 0 0
FullNghs:         2688 ave        2688 max        2688 min
Histogram: 1 0 0 0 0 0 0 0 0 0

Total # of neighbors = 2688
Ave neighs/atom = 84
Neighbor list builds = 0
Dangerous builds = 0

next nr
jump ${simname}.in loopmin
jump LCBOP.in loopmin

# Minimize the with cg + box/relax
  fix             frb all box/relax tri 0.0 couple none
  min_style       cg
  min_modify      line quadratic
  minimize        0.0 1.0e-3 10000 10000
WARNING: Energy due to 6 extra global DOFs will be included in minimizer energies
 (src/min.cpp:225)
Per MPI rank memory allocation (min/avg/max) = 5.149 | 5.149 | 5.149 Mbytes
   Step          Temp          PotEng           Lx             Ly             Lz            Pxx            Pyy            Pzz            Fmax          Fnorm     
        48  9.178139142090749e-12   -235.1993668171792    9.837277450454229    8.519332152491115        49.9812277894 -0.003385359338875498 -0.003319784683218616 -1.522150994729543e-14 1.623943884254686e-06 8.793506595014892e-06
        49  9.178139142090749e-12   -235.1993668171792    9.837277389501269    8.519332100726787        49.9812277894 0.001568875633098868  0.00165953260347192 -1.511199684703498e-14 1.667310749908779e-06 9.023655067413665e-06
Loop time of 0.00063273 on 1 procs for 1 steps with 32 atoms

0.0% CPU use with 1 MPI tasks x no OpenMP threads

Minimization stats:
  Stopping criterion = force tolerance
  Energy initial, next-to-last, final = 
     -235.199366817179  -235.199366817179  -235.199366817179
  Force two-norm initial, final = 1.6300619e-05 1.0858326e-05
  Force max component initial, final = 8.8507854e-06 4.338732e-06
  Final line search alpha, max atom move = 1 4.338732e-06
  Iterations, force evaluations = 1 2

MPI task timing breakdown:
Section |  min time  |  avg time  |  max time  |%varavg| %total
---------------------------------------------------------------
Pair    | 0.00020152 | 0.00020152 | 0.00020152 |   0.0 | 31.85
Neigh   | 0          | 0          | 0          |   0.0 |  0.00
Comm    | 3.654e-06  | 3.654e-06  | 3.654e-06  |   0.0 |  0.58
Output  | 0          | 0          | 0          |   0.0 |  0.00
Modify  | 0          | 0          | 0          |   0.0 |  0.00
Other   |            | 0.0004276  |            |       | 67.57

Nlocal:             32 ave          32 max          32 min
Histogram: 1 0 0 0 0 0 0 0 0 0
Nghost:            281 ave         281 max         281 min
Histogram: 1 0 0 0 0 0 0 0 0 0
Neighs:              0 ave           0 max           0 min
Histogram: 1 0 0 0 0 0 0 0 0 0
FullNghs:         2688 ave        2688 max        2688 min
Histogram: 1 0 0 0 0 0 0 0 0 0

Total # of neighbors = 2688
Ave neighs/atom = 84
Neighbor list builds = 0
Dangerous builds = 0

# Minimize the with fire
  unfix           frb
  min_style       fire
  minimize        0.0 1.0e-3 10000 10000
  Parameters for fire:
    dmax  delaystep dtgrow dtshrink alpha0 alphashrink tmax tmin   integrator   halfstepback   abcfire  
     0.1     20      1.1     0.5     0.25     0.99      10  0.02 eulerimplicit      yes          no     
Per MPI rank memory allocation (min/avg/max) = 4.024 | 4.024 | 4.024 Mbytes
   Step          Temp          PotEng           Lx             Ly             Lz            Pxx            Pyy            Pzz            Fmax          Fnorm     
        49                     0   -235.1993668171791    9.837277389501269    8.519332100726787        49.9812277894 0.001568875538360736 0.001659532693952931 -1.517699424884651e-14 1.667310824515766e-06 9.023655169954545e-06
        50  8.161891223171775e-12   -235.1993668171787    9.837277389501269    8.519332100726787        49.9812277894 0.001516860061552822 0.001711548052970559 -1.499305068285396e-14 1.537931046513563e-06 8.292437666202384e-06
Loop time of 0.00066604 on 1 procs for 1 steps with 32 atoms

0.0% CPU use with 1 MPI tasks x no OpenMP threads

Minimization stats:
  Stopping criterion = force tolerance
  Energy initial, next-to-last, final = 
     -235.199366817179  -235.199366817179  -235.199366817179
  Force two-norm initial, final = 9.0236552e-06 8.2924377e-06
  Force max component initial, final = 1.6673108e-06 1.537931e-06
  Final line search alpha, max atom move = 0 0
  Iterations, force evaluations = 1 2

MPI task timing breakdown:
Section |  min time  |  avg time  |  max time  |%varavg| %total
---------------------------------------------------------------
Pair    | 0.00029715 | 0.00029715 | 0.00029715 |   0.0 | 44.62
Neigh   | 0          | 0          | 0          |   0.0 |  0.00
Comm    | 5.235e-06  | 5.235e-06  | 5.235e-06  |   0.0 |  0.79
Output  | 0          | 0          | 0          |   0.0 |  0.00
Modify  | 0          | 0          | 0          |   0.0 |  0.00
Other   |            | 0.0003637  |            |       | 54.60

Nlocal:             32 ave          32 max          32 min
Histogram: 1 0 0 0 0 0 0 0 0 0
Nghost:            281 ave         281 max         281 min
Histogram: 1 0 0 0 0 0 0 0 0 0
Neighs:              0 ave           0 max           0 min
Histogram: 1 0 0 0 0 0 0 0 0 0
FullNghs:         2688 ave        2688 max        2688 min
Histogram: 1 0 0 0 0 0 0 0 0 0

Total # of neighbors = 2688
Ave neighs/atom = 84
Neighbor list builds = 0
Dangerous builds = 0

next nr
jump ${simname}.in loopmin
jump LCBOP.in loopmin

# Minimize the with cg + box/relax
  fix             frb all box/relax tri 0.0 couple none
  min_style       cg
  min_modify      line quadratic
  minimize        0.0 1.0e-3 10000 10000
WARNING: Energy due to 6 extra global DOFs will be included in minimizer energies
 (src/min.cpp:225)
Per MPI rank memory allocation (min/avg/max) = 5.149 | 5.149 | 5.149 Mbytes
   Step          Temp          PotEng           Lx             Ly             Lz            Pxx            Pyy            Pzz            Fmax          Fnorm     
        50  8.161891223171775e-12   -235.1993668171789    9.837277389501269    8.519332100726787        49.9812277894 0.001516859930717201 0.001711547993111295 -1.4993102546164e-14 1.537931046513563e-06 8.292437529108895e-06
        51  8.161891223171775e-12   -235.1993668171789    9.837277437741074    8.519332147865722        49.9812277894 -0.002592633608169386 -0.002626977960402298 -1.48103896509217e-14 1.301329404235219e-06 6.974368617593684e-06
Loop time of 0.000724593 on 1 procs for 1 steps with 32 atoms

0.0% CPU use with 1 MPI tasks x no OpenMP threads

Minimization stats:
  Stopping criterion = force tolerance
  Energy initial, next-to-last, final = 
     -235.199366817179  -235.199366817179  -235.199366817179
  Force two-norm initial, final = 1.0223398e-05 1.2490996e-05
  Force max component initial, final = 4.4747225e-06 6.8680502e-06
  Final line search alpha, max atom move = 1 6.8680502e-06
  Iterations, force evaluations = 1 2

MPI task timing breakdown:
Section |  min time  |  avg time  |  max time  |%varavg| %total
---------------------------------------------------------------
Pair    | 0.00023807 | 0.00023807 | 0.00023807 |   0.0 | 32.86
Neigh   | 0          | 0          | 0          |   0.0 |  0.00
Comm    | 4.953e-06  | 4.953e-06  | 4.953e-06  |   0.0 |  0.68
Output  | 0          | 0          | 0          |   0.0 |  0.00
Modify  | 0          | 0          | 0          |   0.0 |  0.00
Other   |            | 0.0004816  |            |       | 66.46

Nlocal:             32 ave          32 max          32 min
Histogram: 1 0 0 0 0 0 0 0 0 0
Nghost:            281 ave         281 max         281 min
Histogram: 1 0 0 0 0 0 0 0 0 0
Neighs:              0 ave           0 max           0 min
Histogram: 1 0 0 0 0 0 0 0 0 0
FullNghs:         2688 ave        2688 max        2688 min
Histogram: 1 0 0 0 0 0 0 0 0 0

Total # of neighbors = 2688
Ave neighs/atom = 84
Neighbor list builds = 0
Dangerous builds = 0

# Minimize the with fire
  unfix           frb
  min_style       fire
  minimize        0.0 1.0e-3 10000 10000
  Parameters for fire:
    dmax  delaystep dtgrow dtshrink alpha0 alphashrink tmax tmin   integrator   halfstepback   abcfire  
     0.1     20      1.1     0.5     0.25     0.99      10  0.02 eulerimplicit      yes          no     
Per MPI rank memory allocation (min/avg/max) = 4.024 | 4.024 | 4.024 Mbytes
   Step          Temp          PotEng           Lx             Ly             Lz            Pxx            Pyy            Pzz            Fmax          Fnorm     
        51                     0    -235.199366817179    9.837277437741074    8.519332147865722        49.9812277894 -0.002592633729634034 -0.00262697801527894 -1.487209325330328e-14 1.30132939801797e-06 6.974368621649776e-06
        52  4.875684742592643e-12   -235.1993668171793    9.837277437741074    8.519332147865722        49.9812277894 -0.00263653952859118 -0.002583072354582851 -1.470040449028116e-14 1.201327450406353e-06 6.409610460485129e-06
Loop time of 0.000684569 on 1 procs for 1 steps with 32 atoms

0.0% CPU use with 1 MPI tasks x no OpenMP threads

Minimization stats:
  Stopping criterion = force tolerance
  Energy initial, next-to-last, final = 
     -235.199366817179  -235.199366817179  -235.199366817179
  Force two-norm initial, final = 6.9743686e-06 6.4096105e-06
  Force max component initial, final = 1.3013294e-06 1.2013275e-06
  Final line search alpha, max atom move = 0 0
  Iterations, force evaluations = 1 2

MPI task timing breakdown:
Section |  min time  |  avg time  |  max time  |%varavg| %total
---------------------------------------------------------------
Pair    | 0.00024817 | 0.00024817 | 0.00024817 |   0.0 | 36.25
Neigh   | 0          | 0          | 0          |   0.0 |  0.00
Comm    | 4.689e-06  | 4.689e-06  | 4.689e-06  |   0.0 |  0.68
Output  | 0          | 0          | 0          |   0.0 |  0.00
Modify  | 0          | 0          | 0          |   0.0 |  0.00
Other   |            | 0.0004317  |            |       | 63.06

Nlocal:             32 ave          32 max          32 min
Histogram: 1 0 0 0 0 0 0 0 0 0
Nghost:            281 ave         281 max         281 min
Histogram: 1 0 0 0 0 0 0 0 0 0
Neighs:              0 ave           0 max           0 min
Histogram: 1 0 0 0 0 0 0 0 0 0
FullNghs:         2688 ave        2688 max        2688 min
Histogram: 1 0 0 0 0 0 0 0 0 0

Total # of neighbors = 2688
Ave neighs/atom = 84
Neighbor list builds = 0
Dangerous builds = 0

next nr
jump ${simname}.in loopmin
jump LCBOP.in loopmin

# Minimize the with cg + box/relax
  fix             frb all box/relax tri 0.0 couple none
  min_style       cg
  min_modify      line quadratic
  minimize        0.0 1.0e-3 10000 10000
WARNING: Energy due to 6 extra global DOFs will be included in minimizer energies
 (src/min.cpp:225)
Per MPI rank memory allocation (min/avg/max) = 5.149 | 5.149 | 5.149 Mbytes
   Step          Temp          PotEng           Lx             Ly             Lz            Pxx            Pyy            Pzz            Fmax          Fnorm     
        52  4.875684742592643e-12   -235.1993668171792    9.837277437741074    8.519332147865722        49.9812277894  -0.0026365393910162 -0.002583072338422354 -1.470040953769695e-14 1.201327469502189e-06 6.409610323017068e-06
        53  4.875684742592643e-12   -235.1993668171796    9.837277392044099    8.519332109093529        49.9812277894 0.001079694385403514 0.001144547399954655 -1.46070635802019e-14 1.236605189358642e-06 6.599918259619905e-06
Loop time of 0.000783495 on 1 procs for 1 steps with 32 atoms

9.7% CPU use with 1 MPI tasks x no OpenMP threads

Minimization stats:
  Stopping criterion = force tolerance
  Energy initial, next-to-last, final = 
     -235.199366817179  -235.199366817179   -235.19936681718
  Force two-norm initial, final = 1.2404307e-05 7.7994455e-06
  Force max component initial, final = 6.893048e-06 2.9923391e-06
  Final line search alpha, max atom move = 1 2.9923391e-06
  Iterations, force evaluations = 1 2

MPI task timing breakdown:
Section |  min time  |  avg time  |  max time  |%varavg| %total
---------------------------------------------------------------
Pair    | 0.00035526 | 0.00035526 | 0.00035526 |   0.0 | 45.34
Neigh   | 0          | 0          | 0          |   0.0 |  0.00
Comm    | 5.709e-06  | 5.709e-06  | 5.709e-06  |   0.0 |  0.73
Output  | 0          | 0          | 0          |   0.0 |  0.00
Modify  | 0          | 0          | 0          |   0.0 |  0.00
Other   |            | 0.0004225  |            |       | 53.93

Nlocal:             32 ave          32 max          32 min
Histogram: 1 0 0 0 0 0 0 0 0 0
Nghost:            281 ave         281 max         281 min
Histogram: 1 0 0 0 0 0 0 0 0 0
Neighs:              0 ave           0 max           0 min
Histogram: 1 0 0 0 0 0 0 0 0 0
FullNghs:         2688 ave        2688 max        2688 min
Histogram: 1 0 0 0 0 0 0 0 0 0

Total # of neighbors = 2688
Ave neighs/atom = 84
Neighbor list builds = 0
Dangerous builds = 0

# Minimize the with fire
  unfix           frb
  min_style       fire
  minimize        0.0 1.0e-3 10000 10000
  Parameters for fire:
    dmax  delaystep dtgrow dtshrink alpha0 alphashrink tmax tmin   integrator   halfstepback   abcfire  
     0.1     20      1.1     0.5     0.25     0.99      10  0.02 eulerimplicit      yes          no     
Per MPI rank memory allocation (min/avg/max) = 4.024 | 4.024 | 4.024 Mbytes
   Step          Temp          PotEng           Lx             Ly             Lz            Pxx            Pyy            Pzz            Fmax          Fnorm     
        53                     0   -235.1993668171796    9.837277392044099    8.519332109093529        49.9812277894 0.001079694325348656 0.001144547376644763 -1.466452373827794e-14 1.236605234211652e-06 6.599918065409703e-06
        54  4.366192827185983e-12   -235.1993668171795    9.837277392044099    8.519332109093529        49.9812277894 0.001041786322198682 0.001182455469318924 -1.450107396555371e-14 1.141635491919146e-06 6.065519529326174e-06
Loop time of 0.000748653 on 1 procs for 1 steps with 32 atoms

7.5% CPU use with 1 MPI tasks x no OpenMP threads

Minimization stats:
  Stopping criterion = force tolerance
  Energy initial, next-to-last, final = 
      -235.19936681718   -235.19936681718   -235.19936681718
  Force two-norm initial, final = 6.5999181e-06 6.0655195e-06
  Force max component initial, final = 1.2366052e-06 1.1416355e-06
  Final line search alpha, max atom move = 0 0
  Iterations, force evaluations = 1 2

MPI task timing breakdown:
Section |  min time  |  avg time  |  max time  |%varavg| %total
---------------------------------------------------------------
Pair    | 0.00022619 | 0.00022619 | 0.00022619 |   0.0 | 30.21
Neigh   | 0          | 0          | 0          |   0.0 |  0.00
Comm    | 3.823e-06  | 3.823e-06  | 3.823e-06  |   0.0 |  0.51
Output  | 0          | 0          | 0          |   0.0 |  0.00
Modify  | 0          | 0          | 0          |   0.0 |  0.00
Other   |            | 0.0005186  |            |       | 69.28

Nlocal:             32 ave          32 max          32 min
Histogram: 1 0 0 0 0 0 0 0 0 0
Nghost:            281 ave         281 max         281 min
Histogram: 1 0 0 0 0 0 0 0 0 0
Neighs:              0 ave           0 max           0 min
Histogram: 1 0 0 0 0 0 0 0 0 0
FullNghs:         2688 ave        2688 max        2688 min
Histogram: 1 0 0 0 0 0 0 0 0 0

Total # of neighbors = 2688
Ave neighs/atom = 84
Neighbor list builds = 0
Dangerous builds = 0

next nr
jump ${simname}.in loopmin
jump LCBOP.in loopmin

# Minimize the with cg + box/relax
  fix             frb all box/relax tri 0.0 couple none
  min_style       cg
  min_modify      line quadratic
  minimize        0.0 1.0e-3 10000 10000
WARNING: Energy due to 6 extra global DOFs will be included in minimizer energies
 (src/min.cpp:225)
Per MPI rank memory allocation (min/avg/max) = 5.149 | 5.149 | 5.149 Mbytes
   Step          Temp          PotEng           Lx             Ly             Lz            Pxx            Pyy            Pzz            Fmax          Fnorm     
        54  4.366192827185983e-12   -235.1993668171796    9.837277392044099    8.519332109093529        49.9812277894 0.001041786227754412 0.001182455483909537 -1.450108655937528e-14 1.14163541109491e-06 6.06551941051621e-06
        55  4.366192827185983e-12   -235.1993668171794    9.837277427710587     8.51933214415234        49.9812277894 -0.00200248945915042 -0.002038977363458589 -1.432637810868136e-14 9.593528784712646e-07 5.053735275236832e-06
Loop time of 0.00119714 on 1 procs for 1 steps with 32 atoms

6.8% CPU use with 1 MPI tasks x no OpenMP threads

Minimization stats:
  Stopping criterion = force tolerance
  Energy initial, next-to-last, final = 
      -235.19936681718   -235.19936681718  -235.199366817179
  Force two-norm initial, final = 7.3325993e-06 9.4526143e-06
  Force max component initial, final = 3.0914472e-06 5.3307637e-06
  Final line search alpha, max atom move = 1 5.3307637e-06
  Iterations, force evaluations = 1 2

MPI task timing breakdown:
Section |  min time  |  avg time  |  max time  |%varavg| %total
---------------------------------------------------------------
Pair    | 0.0003458  | 0.0003458  | 0.0003458  |   0.0 | 28.89
Neigh   | 0          | 0          | 0          |   0.0 |  0.00
Comm    | 6.703e-06  | 6.703e-06  | 6.703e-06  |   0.0 |  0.56
Output  | 0          | 0          | 0          |   0.0 |  0.00
Modify  | 0          | 0          | 0          |   0.0 |  0.00
Other   |            | 0.0008446  |            |       | 70.55

Nlocal:             32 ave          32 max          32 min
Histogram: 1 0 0 0 0 0 0 0 0 0
Nghost:            281 ave         281 max         281 min
Histogram: 1 0 0 0 0 0 0 0 0 0
Neighs:              0 ave           0 max           0 min
Histogram: 1 0 0 0 0 0 0 0 0 0
FullNghs:         2688 ave        2688 max        2688 min
Histogram: 1 0 0 0 0 0 0 0 0 0

Total # of neighbors = 2688
Ave neighs/atom = 84
Neighbor list builds = 0
Dangerous builds = 0

# Minimize the with fire
  unfix           frb
  min_style       fire
  minimize        0.0 1.0e-3 10000 10000
  Parameters for fire:
    dmax  delaystep dtgrow dtshrink alpha0 alphashrink tmax tmin   integrator   halfstepback   abcfire  
     0.1     20      1.1     0.5     0.25     0.99      10  0.02 eulerimplicit      yes          no     
Per MPI rank memory allocation (min/avg/max) = 4.024 | 4.024 | 4.024 Mbytes
   Step          Temp          PotEng           Lx             Ly             Lz            Pxx            Pyy            Pzz            Fmax          Fnorm     
        55                     0   -235.1993668171793    9.837277427710587     8.51933214415234        49.9812277894 -0.00200248944097697 -0.002038977321219311 -1.438109874050816e-14 9.593530192475441e-07 5.05373514310901e-06
        56  2.56006369761291e-12   -235.1993668171794    9.837277427710587     8.51933214415234        49.9812277894 -0.002034256352546208 -0.002007210243730078 -1.422827956707065e-14 8.865771174981774e-07 4.644999139878696e-06
Loop time of 0.000689071 on 1 procs for 1 steps with 32 atoms

8.3% CPU use with 1 MPI tasks x no OpenMP threads

Minimization stats:
  Stopping criterion = force tolerance
  Energy initial, next-to-last, final = 
     -235.199366817179  -235.199366817179  -235.199366817179
  Force two-norm initial, final = 5.0537351e-06 4.6449991e-06
  Force max component initial, final = 9.5935302e-07 8.8657712e-07
  Final line search alpha, max atom move = 0 0
  Iterations, force evaluations = 1 2

MPI task timing breakdown:
Section |  min time  |  avg time  |  max time  |%varavg| %total
---------------------------------------------------------------
Pair    | 0.00022597 | 0.00022597 | 0.00022597 |   0.0 | 32.79
Neigh   | 0          | 0          | 0          |   0.0 |  0.00
Comm    | 3.911e-06  | 3.911e-06  | 3.911e-06  |   0.0 |  0.57
Output  | 0          | 0          | 0          |   0.0 |  0.00
Modify  | 0          | 0          | 0          |   0.0 |  0.00
Other   |            | 0.0004592  |            |       | 66.64

Nlocal:             32 ave          32 max          32 min
Histogram: 1 0 0 0 0 0 0 0 0 0
Nghost:            281 ave         281 max         281 min
Histogram: 1 0 0 0 0 0 0 0 0 0
Neighs:              0 ave           0 max           0 min
Histogram: 1 0 0 0 0 0 0 0 0 0
FullNghs:         2688 ave        2688 max        2688 min
Histogram: 1 0 0 0 0 0 0 0 0 0

Total # of neighbors = 2688
Ave neighs/atom = 84
Neighbor list builds = 0
Dangerous builds = 0

next nr
jump ${simname}.in loopmin
jump LCBOP.in loopmin

# Minimize the with cg + box/relax
  fix             frb all box/relax tri 0.0 couple none
  min_style       cg
  min_modify      line quadratic
  minimize        0.0 1.0e-3 10000 10000
WARNING: Energy due to 6 extra global DOFs will be included in minimizer energies
 (src/min.cpp:225)
Per MPI rank memory allocation (min/avg/max) = 5.149 | 5.149 | 5.149 Mbytes
   Step          Temp          PotEng           Lx             Ly             Lz            Pxx            Pyy            Pzz            Fmax          Fnorm     
        56  2.56006369761291e-12   -235.1993668171793    9.837277427710587     8.51933214415234        49.9812277894 -0.002034256491915675 -0.002007210288943824 -1.422822518005318e-14 8.865770078081425e-07 4.644999119470872e-06
        57  2.56006369761291e-12   -235.1993668171794    9.837277393681044    8.519332115073711        49.9812277894 0.0007372690233789023 0.0007840952051074627 -1.414802418114552e-14 9.144446115882943e-07 4.796830440613012e-06
Loop time of 0.000832167 on 1 procs for 1 steps with 32 atoms

9.1% CPU use with 1 MPI tasks x no OpenMP threads

Minimization stats:
  Stopping criterion = force tolerance
  Energy initial, next-to-last, final = 
     -235.199366817179  -235.199366817179  -235.199366817179
  Force two-norm initial, final = 9.3968292e-06 5.5744295e-06
  Force max component initial, final = 5.3184214e-06 2.0499621e-06
  Final line search alpha, max atom move = 1 2.0499621e-06
  Iterations, force evaluations = 1 2

MPI task timing breakdown:
Section |  min time  |  avg time  |  max time  |%varavg| %total
---------------------------------------------------------------
Pair    | 0.00032001 | 0.00032001 | 0.00032001 |   0.0 | 38.45
Neigh   | 0          | 0          | 0          |   0.0 |  0.00
Comm    | 7.077e-06  | 7.077e-06  | 7.077e-06  |   0.0 |  0.85
Output  | 0          | 0          | 0          |   0.0 |  0.00
Modify  | 0          | 0          | 0          |   0.0 |  0.00
Other   |            | 0.0005051  |            |       | 60.70

Nlocal:             32 ave          32 max          32 min
Histogram: 1 0 0 0 0 0 0 0 0 0
Nghost:            281 ave         281 max         281 min
Histogram: 1 0 0 0 0 0 0 0 0 0
Neighs:              0 ave           0 max           0 min
Histogram: 1 0 0 0 0 0 0 0 0 0
FullNghs:         2688 ave        2688 max        2688 min
Histogram: 1 0 0 0 0 0 0 0 0 0

Total # of neighbors = 2688
Ave neighs/atom = 84
Neighbor list builds = 0
Dangerous builds = 0

# Minimize the with fire
  unfix           frb
  min_style       fire
  minimize        0.0 1.0e-3 10000 10000
  Parameters for fire:
    dmax  delaystep dtgrow dtshrink alpha0 alphashrink tmax tmin   integrator   halfstepback   abcfire  
     0.1     20      1.1     0.5     0.25     0.99      10  0.02 eulerimplicit      yes          no     
Per MPI rank memory allocation (min/avg/max) = 4.024 | 4.024 | 4.024 Mbytes
   Step          Temp          PotEng           Lx             Ly             Lz            Pxx            Pyy            Pzz            Fmax          Fnorm     
        57                     0   -235.1993668171794    9.837277393681044    8.519332115073711        49.9812277894 0.000737269045397711 0.0007840951734927727 -1.419916702970038e-14 9.144448376297021e-07 4.796830397202335e-06
        58  2.306399569698494e-12   -235.1993668171795    9.837277393681044    8.519332115073711        49.9812277894 0.0007098455627864627 0.0008115187858865397 -1.405308551471961e-14 8.451169288825611e-07 4.40890955091673e-06
Loop time of 0.00072335 on 1 procs for 1 steps with 32 atoms

9.7% CPU use with 1 MPI tasks x no OpenMP threads

Minimization stats:
  Stopping criterion = force tolerance
  Energy initial, next-to-last, final = 
     -235.199366817179  -235.199366817179   -235.19936681718
  Force two-norm initial, final = 4.7968304e-06 4.4089096e-06
  Force max component initial, final = 9.1444484e-07 8.4511693e-07
  Final line search alpha, max atom move = 0 0
  Iterations, force evaluations = 1 2

MPI task timing breakdown:
Section |  min time  |  avg time  |  max time  |%varavg| %total
---------------------------------------------------------------
Pair    | 0.00029578 | 0.00029578 | 0.00029578 |   0.0 | 40.89
Neigh   | 0          | 0          | 0          |   0.0 |  0.00
Comm    | 5.427e-06  | 5.427e-06  | 5.427e-06  |   0.0 |  0.75
Output  | 0          | 0          | 0          |   0.0 |  0.00
Modify  | 0          | 0          | 0          |   0.0 |  0.00
Other   |            | 0.0004221  |            |       | 58.36

Nlocal:             32 ave          32 max          32 min
Histogram: 1 0 0 0 0 0 0 0 0 0
Nghost:            281 ave         281 max         281 min
Histogram: 1 0 0 0 0 0 0 0 0 0
Neighs:              0 ave           0 max           0 min
Histogram: 1 0 0 0 0 0 0 0 0 0
FullNghs:         2688 ave        2688 max        2688 min
Histogram: 1 0 0 0 0 0 0 0 0 0

Total # of neighbors = 2688
Ave neighs/atom = 84
Neighbor list builds = 0
Dangerous builds = 0

next nr
jump ${simname}.in loopmin
jump LCBOP.in loopmin

# Minimize the with cg + box/relax
  fix             frb all box/relax tri 0.0 couple none
  min_style       cg
  min_modify      line quadratic
  minimize        0.0 1.0e-3 10000 10000
WARNING: Energy due to 6 extra global DOFs will be included in minimizer energies
 (src/min.cpp:225)
Per MPI rank memory allocation (min/avg/max) = 5.149 | 5.149 | 5.149 Mbytes
   Step          Temp          PotEng           Lx             Ly             Lz            Pxx            Pyy            Pzz            Fmax          Fnorm     
        58  2.306399569698494e-12   -235.1993668171795    9.837277393681044    8.519332115073711        49.9812277894 0.0007098457103314772 0.0008115187789372584 -1.405315891729571e-14 8.451170248058304e-07 4.408909482064322e-06
        59  2.306399569698494e-12   -235.1993668171794    9.837277419924154    8.519332141056188        49.9812277894 -0.00153504610576184 -0.001571565281076742 -1.38842788422626e-14   7.048148136235e-07 3.634061117448323e-06
Loop time of 0.000682758 on 1 procs for 1 steps with 32 atoms

8.8% CPU use with 1 MPI tasks x no OpenMP threads

Minimization stats:
  Stopping criterion = force tolerance
  Energy initial, next-to-last, final = 
      -235.19936681718   -235.19936681718  -235.199366817179
  Force two-norm initial, final = 5.2334438e-06 7.1136141e-06
  Force max component initial, final = 2.1216591e-06 4.1087475e-06
  Final line search alpha, max atom move = 1 4.1087475e-06
  Iterations, force evaluations = 1 2

MPI task timing breakdown:
Section |  min time  |  avg time  |  max time  |%varavg| %total
---------------------------------------------------------------
Pair    | 0.00023386 | 0.00023386 | 0.00023386 |   0.0 | 34.25
Neigh   | 0          | 0          | 0          |   0.0 |  0.00
Comm    | 4.594e-06  | 4.594e-06  | 4.594e-06  |   0.0 |  0.67
Output  | 0          | 0          | 0          |   0.0 |  0.00
Modify  | 0          | 0          | 0          |   0.0 |  0.00
Other   |            | 0.0004443  |            |       | 65.07

Nlocal:             32 ave          32 max          32 min
Histogram: 1 0 0 0 0 0 0 0 0 0
Nghost:            281 ave         281 max         281 min
Histogram: 1 0 0 0 0 0 0 0 0 0
Neighs:              0 ave           0 max           0 min
Histogram: 1 0 0 0 0 0 0 0 0 0
[...]
Histogram: 1 0 0 0 0 0 0 0 0 0
FullNghs:         2688 ave        2688 max        2688 min
Histogram: 1 0 0 0 0 0 0 0 0 0

Total # of neighbors = 2688
Ave neighs/atom = 84
Neighbor list builds = 0
Dangerous builds = 0

# Minimize the with fire
  unfix           frb
  min_style       fire
  minimize        0.0 1.0e-3 10000 10000
  Parameters for fire:
    dmax  delaystep dtgrow dtshrink alpha0 alphashrink tmax tmin   integrator   halfstepback   abcfire  
     0.1     20      1.1     0.5     0.25     0.99      10  0.02 eulerimplicit      yes          no     
Per MPI rank memory allocation (min/avg/max) = 4.024 | 4.024 | 4.024 Mbytes
   Step          Temp          PotEng           Lx             Ly             Lz            Pxx            Pyy            Pzz            Fmax          Fnorm     
       221                     0   -235.1993668171795    9.837277396029961    8.519332129036378        49.9812277894 7.386204009165229e-07 7.383338672945734e-07 -5.897771937317275e-15 2.389738286576802e-09 5.089965879987839e-09
       222  2.596901431380343e-18   -235.1993668171798    9.837277396029961    8.519332129036378        49.9812277894 7.385091218492891e-07 7.383147568757849e-07 -5.877278520811098e-15 2.384972969464427e-09 5.070919956434165e-09
Loop time of 0.00046183 on 1 procs for 1 steps with 32 atoms

60.0% CPU use with 1 MPI tasks x no OpenMP threads

Minimization stats:
  Stopping criterion = force tolerance
  Energy initial, next-to-last, final = 
      -235.19936681718   -235.19936681718   -235.19936681718
  Force two-norm initial, final = 5.0899659e-09 5.07092e-09
  Force max component initial, final = 2.3897383e-09 2.384973e-09
  Final line search alpha, max atom move = 0 0
  Iterations, force evaluations = 1 2

MPI task timing breakdown:
Section |  min time  |  avg time  |  max time  |%varavg| %total
---------------------------------------------------------------
Pair    | 0.00020163 | 0.00020163 | 0.00020163 |   0.0 | 43.66
Neigh   | 0          | 0          | 0          |   0.0 |  0.00
Comm    | 3.635e-06  | 3.635e-06  | 3.635e-06  |   0.0 |  0.79
Output  | 0          | 0          | 0          |   0.0 |  0.00
Modify  | 0          | 0          | 0          |   0.0 |  0.00
Other   |            | 0.0002566  |            |       | 55.55

Nlocal:             32 ave          32 max          32 min
Histogram: 1 0 0 0 0 0 0 0 0 0
Nghost:            281 ave         281 max         281 min
Histogram: 1 0 0 0 0 0 0 0 0 0
Neighs:              0 ave           0 max           0 min
Histogram: 1 0 0 0 0 0 0 0 0 0
FullNghs:         2688 ave        2688 max        2688 min
Histogram: 1 0 0 0 0 0 0 0 0 0

Total # of neighbors = 2688
Ave neighs/atom = 84
Neighbor list builds = 0
Dangerous builds = 0

next nr
jump ${simname}.in loopmin
jump LCBOP.in loopmin

# Minimize the with cg + box/relax
  fix             frb all box/relax tri 0.0 couple none
  min_style       cg
  min_modify      line quadratic
  minimize        0.0 1.0e-3 10000 10000
WARNING: Energy due to 6 extra global DOFs will be included in minimizer energies
 (src/min.cpp:225)
Per MPI rank memory allocation (min/avg/max) = 5.149 | 5.149 | 5.149 Mbytes
   Step          Temp          PotEng           Lx             Ly             Lz            Pxx            Pyy            Pzz            Fmax          Fnorm     
       222  2.596901431380343e-18   -235.1993668171797    9.837277396029961    8.519332129036378        49.9812277894 7.385292868487962e-07 7.382909422741202e-07 -5.877240529243464e-15 2.384972969464365e-09 5.070918321633975e-09
       223  2.596901431380343e-18   -235.1993668171794     9.83727739606628    8.519332129067823        49.9812277894 -2.249709590591548e-06 -2.2494930810103e-06 -5.84491969863093e-15 2.373610421499555e-09 5.034498822192659e-09
Loop time of 0.000633405 on 1 procs for 1 steps with 32 atoms

63.0% CPU use with 1 MPI tasks x no OpenMP threads

Minimization stats:
  Stopping criterion = force tolerance
  Energy initial, next-to-last, final = 
      -235.19936681718   -235.19936681718  -235.199366817179
  Force two-norm initial, final = 5.8350759e-09 1.0142849e-08
  Force max component initial, final = 2.384973e-09 5.8817084e-09
  Final line search alpha, max atom move = 1 5.8817084e-09
  Iterations, force evaluations = 1 2

MPI task timing breakdown:
Section |  min time  |  avg time  |  max time  |%varavg| %total
---------------------------------------------------------------
Pair    | 0.00024986 | 0.00024986 | 0.00024986 |   0.0 | 39.45
Neigh   | 0          | 0          | 0          |   0.0 |  0.00
Comm    | 3.954e-06  | 3.954e-06  | 3.954e-06  |   0.0 |  0.62
Output  | 0          | 0          | 0          |   0.0 |  0.00
Modify  | 0          | 0          | 0          |   0.0 |  0.00
Other   |            | 0.0003796  |            |       | 59.93

Nlocal:             32 ave          32 max          32 min
Histogram: 1 0 0 0 0 0 0 0 0 0
Nghost:            281 ave         281 max         281 min
Histogram: 1 0 0 0 0 0 0 0 0 0
Neighs:              0 ave           0 max           0 min
Histogram: 1 0 0 0 0 0 0 0 0 0
FullNghs:         2688 ave        2688 max        2688 min
Histogram: 1 0 0 0 0 0 0 0 0 0

Total # of neighbors = 2688
Ave neighs/atom = 84
Neighbor list builds = 0
Dangerous builds = 0

# Minimize the with fire
  unfix           frb
  min_style       fire
  minimize        0.0 1.0e-3 10000 10000
  Parameters for fire:
    dmax  delaystep dtgrow dtshrink alpha0 alphashrink tmax tmin   integrator   halfstepback   abcfire  
     0.1     20      1.1     0.5     0.25     0.99      10  0.02 eulerimplicit      yes          no     
Per MPI rank memory allocation (min/avg/max) = 4.024 | 4.024 | 4.024 Mbytes
   Step          Temp          PotEng           Lx             Ly             Lz            Pxx            Pyy            Pzz            Fmax          Fnorm     
       223                     0   -235.1993668171793     9.83727739606628    8.519332129067823        49.9812277894 -2.24981048691793e-06 -2.24946591323404e-06 -5.851807360877794e-15 2.373610421499455e-09 5.034519842518544e-09
       224  2.540630924201894e-18   -235.1993668171794     9.83727739606628    8.519332129067823        49.9812277894 -2.249855926674586e-06 -2.249325558191832e-06 -5.831681075797366e-15 2.368863295246203e-09 5.015337964630915e-09
Loop time of 0.000784557 on 1 procs for 1 steps with 32 atoms

55.4% CPU use with 1 MPI tasks x no OpenMP threads

Minimization stats:
  Stopping criterion = force tolerance
  Energy initial, next-to-last, final = 
     -235.199366817179  -235.199366817179  -235.199366817179
  Force two-norm initial, final = 5.0345198e-09 5.015338e-09
  Force max component initial, final = 2.3736104e-09 2.3688633e-09
  Final line search alpha, max atom move = 0 0
  Iterations, force evaluations = 1 2

MPI task timing breakdown:
Section |  min time  |  avg time  |  max time  |%varavg| %total
---------------------------------------------------------------
Pair    | 0.00032921 | 0.00032921 | 0.00032921 |   0.0 | 41.96
Neigh   | 0          | 0          | 0          |   0.0 |  0.00
Comm    | 5.703e-06  | 5.703e-06  | 5.703e-06  |   0.0 |  0.73
Output  | 0          | 0          | 0          |   0.0 |  0.00
Modify  | 0          | 0          | 0          |   0.0 |  0.00
Other   |            | 0.0004496  |            |       | 57.31

Nlocal:             32 ave          32 max          32 min
Histogram: 1 0 0 0 0 0 0 0 0 0
Nghost:            281 ave         281 max         281 min
Histogram: 1 0 0 0 0 0 0 0 0 0
Neighs:              0 ave           0 max           0 min
Histogram: 1 0 0 0 0 0 0 0 0 0
FullNghs:         2688 ave        2688 max        2688 min
Histogram: 1 0 0 0 0 0 0 0 0 0

Total # of neighbors = 2688
Ave neighs/atom = 84
Neighbor list builds = 0
Dangerous builds = 0

next nr
jump ${simname}.in loopmin
jump LCBOP.in loopmin

# Minimize the with cg + box/relax
  fix             frb all box/relax tri 0.0 couple none
  min_style       cg
  min_modify      line quadratic
  minimize        0.0 1.0e-3 10000 10000
WARNING: Energy due to 6 extra global DOFs will be included in minimizer energies
 (src/min.cpp:225)
Per MPI rank memory allocation (min/avg/max) = 5.149 | 5.149 | 5.149 Mbytes
   Step          Temp          PotEng           Lx             Ly             Lz            Pxx            Pyy            Pzz            Fmax          Fnorm     
       224  2.540630924201894e-18   -235.1993668171794     9.83727739606628    8.519332129067823        49.9812277894 -2.249847870892972e-06 -2.249336337469253e-06 -5.831696237819219e-15 2.368863295246206e-09 5.015336240683996e-09
       225  2.540630924201894e-18   -235.1993668171797    9.837277396030132    8.519332129036524        49.9812277894 7.244441093388648e-07 7.24447653690303e-07 -5.821165954146551e-15 2.365184292400506e-09 4.996428049078923e-09
Loop time of 0.000645593 on 1 procs for 1 steps with 32 atoms

55.1% CPU use with 1 MPI tasks x no OpenMP threads

Minimization stats:
  Stopping criterion = force tolerance
  Energy initial, next-to-last, final = 
     -235.199366817179  -235.199366817179   -235.19936681718
  Force two-norm initial, final = 1.0124997e-08 5.7459397e-09
  Force max component initial, final = 5.8820699e-09 2.3651843e-09
  Final line search alpha, max atom move = 1 2.3651843e-09
  Iterations, force evaluations = 1 2

MPI task timing breakdown:
Section |  min time  |  avg time  |  max time  |%varavg| %total
---------------------------------------------------------------
Pair    | 0.00025623 | 0.00025623 | 0.00025623 |   0.0 | 39.69
Neigh   | 0          | 0          | 0          |   0.0 |  0.00
Comm    | 4.129e-06  | 4.129e-06  | 4.129e-06  |   0.0 |  0.64
Output  | 0          | 0          | 0          |   0.0 |  0.00
Modify  | 0          | 0          | 0          |   0.0 |  0.00
Other   |            | 0.0003852  |            |       | 59.67

Nlocal:             32 ave          32 max          32 min
Histogram: 1 0 0 0 0 0 0 0 0 0
Nghost:            281 ave         281 max         281 min
Histogram: 1 0 0 0 0 0 0 0 0 0
Neighs:              0 ave           0 max           0 min
Histogram: 1 0 0 0 0 0 0 0 0 0
FullNghs:         2688 ave        2688 max        2688 min
Histogram: 1 0 0 0 0 0 0 0 0 0

Total # of neighbors = 2688
Ave neighs/atom = 84
Neighbor list builds = 0
Dangerous builds = 0

# Minimize the with fire
  unfix           frb
  min_style       fire
  minimize        0.0 1.0e-3 10000 10000
  Parameters for fire:
    dmax  delaystep dtgrow dtshrink alpha0 alphashrink tmax tmin   integrator   halfstepback   abcfire  
     0.1     20      1.1     0.5     0.25     0.99      10  0.02 eulerimplicit      yes          no     
Per MPI rank memory allocation (min/avg/max) = 4.024 | 4.024 | 4.024 Mbytes
   Step          Temp          PotEng           Lx             Ly             Lz            Pxx            Pyy            Pzz            Fmax          Fnorm     
       225                     0   -235.1993668171799    9.837277396030132    8.519332129036524        49.9812277894 7.242919668023834e-07 7.244889714194753e-07 -5.827894766260227e-15 2.365184292400521e-09 4.996433739132678e-09
       226  2.502327477696785e-18   -235.1993668171797    9.837277396030132    8.519332129036524        49.9812277894 7.246483593322659e-07 7.245170348641806e-07 -5.807863898566686e-15 2.360496765243382e-09 4.978690219703126e-09
Loop time of 0.000845317 on 1 procs for 1 steps with 32 atoms

35.1% CPU use with 1 MPI tasks x no OpenMP threads

Minimization stats:
  Stopping criterion = force tolerance
  Energy initial, next-to-last, final = 
      -235.19936681718   -235.19936681718   -235.19936681718
  Force two-norm initial, final = 4.9964337e-09 4.9786902e-09
  Force max component initial, final = 2.3651843e-09 2.3604968e-09
  Final line search alpha, max atom move = 0 0
  Iterations, force evaluations = 1 2

MPI task timing breakdown:
Section |  min time  |  avg time  |  max time  |%varavg| %total
---------------------------------------------------------------
Pair    | 0.00031399 | 0.00031399 | 0.00031399 |   0.0 | 37.14
Neigh   | 0          | 0          | 0          |   0.0 |  0.00
Comm    | 5.164e-06  | 5.164e-06  | 5.164e-06  |   0.0 |  0.61
Output  | 0          | 0          | 0          |   0.0 |  0.00
Modify  | 0          | 0          | 0          |   0.0 |  0.00
Other   |            | 0.0005262  |            |       | 62.24

Nlocal:             32 ave          32 max          32 min
Histogram: 1 0 0 0 0 0 0 0 0 0
Nghost:            281 ave         281 max         281 min
Histogram: 1 0 0 0 0 0 0 0 0 0
Neighs:              0 ave           0 max           0 min
Histogram: 1 0 0 0 0 0 0 0 0 0
FullNghs:         2688 ave        2688 max        2688 min
Histogram: 1 0 0 0 0 0 0 0 0 0

Total # of neighbors = 2688
Ave neighs/atom = 84
Neighbor list builds = 0
Dangerous builds = 0

next nr
jump ${simname}.in loopmin
jump LCBOP.in loopmin

# Minimize the with cg + box/relax
  fix             frb all box/relax tri 0.0 couple none
  min_style       cg
  min_modify      line quadratic
  minimize        0.0 1.0e-3 10000 10000
Per MPI rank memory allocation (min/avg/max) = 5.149 | 5.149 | 5.149 Mbytes
   Step          Temp          PotEng           Lx             Ly             Lz            Pxx            Pyy            Pzz            Fmax          Fnorm     
WARNING: Too many warnings: 101 vs 100. All future warnings will be suppressed (src/thermo.cpp:472)
       226  2.502327477696785e-18   -235.1993668171796    9.837277396030132    8.519332129036524        49.9812277894 7.244640457561054e-07 7.243781141842116e-07 -5.807846175759924e-15 2.360496765243403e-09 4.978706284904635e-09
       227  2.502327477696785e-18   -235.1993668171795    9.837277396065813    8.519332129067422        49.9812277894 -2.211449450382478e-06 -2.21122888429617e-06 -5.776196382026118e-15 2.349363766003417e-09 4.945119400371365e-09
Loop time of 0.000991367 on 1 procs for 1 steps with 32 atoms

11.3% CPU use with 1 MPI tasks x no OpenMP threads

Minimization stats:
  Stopping criterion = force tolerance
  Energy initial, next-to-last, final = 
      -235.19936681718   -235.19936681718   -235.19936681718
  Force two-norm initial, final = 5.7278968e-09 9.9684273e-09
  Force max component initial, final = 2.3604968e-09 5.78168e-09
  Final line search alpha, max atom move = 1 5.78168e-09
  Iterations, force evaluations = 1 2

MPI task timing breakdown:
Section |  min time  |  avg time  |  max time  |%varavg| %total
---------------------------------------------------------------
Pair    | 0.00038204 | 0.00038204 | 0.00038204 |   0.0 | 38.54
Neigh   | 0          | 0          | 0          |   0.0 |  0.00
Comm    | 6.665e-06  | 6.665e-06  | 6.665e-06  |   0.0 |  0.67
Output  | 0          | 0          | 0          |   0.0 |  0.00
Modify  | 0          | 0          | 0          |   0.0 |  0.00
Other   |            | 0.0006027  |            |       | 60.79

Nlocal:             32 ave          32 max          32 min
Histogram: 1 0 0 0 0 0 0 0 0 0
Nghost:            281 ave         281 max         281 min
Histogram: 1 0 0 0 0 0 0 0 0 0
Neighs:              0 ave           0 max           0 min
Histogram: 1 0 0 0 0 0 0 0 0 0
FullNghs:         2688 ave        2688 max        2688 min
Histogram: 1 0 0 0 0 0 0 0 0 0

Total # of neighbors = 2688
Ave neighs/atom = 84
Neighbor list builds = 0
Dangerous builds = 0

# Minimize the with fire
  unfix           frb
  min_style       fire
  minimize        0.0 1.0e-3 10000 10000
  Parameters for fire:
    dmax  delaystep dtgrow dtshrink alpha0 alphashrink tmax tmin   integrator   halfstepback   abcfire  
     0.1     20      1.1     0.5     0.25     0.99      10  0.02 eulerimplicit      yes          no     
Per MPI rank memory allocation (min/avg/max) = 4.024 | 4.024 | 4.024 Mbytes
   Step          Temp          PotEng           Lx             Ly             Lz            Pxx            Pyy            Pzz            Fmax          Fnorm     
       227                     0   -235.1993668171795    9.837277396065813    8.519332129067422        49.9812277894 -2.21148408274616e-06 -2.211205844353169e-06 -5.782931367737083e-15 2.349363766003334e-09 4.945128277055951e-09
       228  2.451212627929586e-18   -235.1993668171793    9.837277396065813    8.519332129067422        49.9812277894 -2.2114288424842e-06 -2.211313111039485e-06 -5.763067585622967e-15 2.344712176759735e-09 4.927142441962934e-09
Loop time of 0.000606158 on 1 procs for 1 steps with 32 atoms

13.5% CPU use with 1 MPI tasks x no OpenMP threads

Minimization stats:
  Stopping criterion = force tolerance
  Energy initial, next-to-last, final = 
      -235.19936681718   -235.19936681718  -235.199366817179
  Force two-norm initial, final = 4.9451283e-09 4.9271424e-09
  Force max component initial, final = 2.3493638e-09 2.3447122e-09
  Final line search alpha, max atom move = 0 0
  Iterations, force evaluations = 1 2

MPI task timing breakdown:
Section |  min time  |  avg time  |  max time  |%varavg| %total
---------------------------------------------------------------
Pair    | 0.00026127 | 0.00026127 | 0.00026127 |   0.0 | 43.10
Neigh   | 0          | 0          | 0          |   0.0 |  0.00
Comm    | 4.221e-06  | 4.221e-06  | 4.221e-06  |   0.0 |  0.70
Output  | 0          | 0          | 0          |   0.0 |  0.00
Modify  | 0          | 0          | 0          |   0.0 |  0.00
Other   |            | 0.0003407  |            |       | 56.20

Nlocal:             32 ave          32 max          32 min
Histogram: 1 0 0 0 0 0 0 0 0 0
Nghost:            281 ave         281 max         281 min
Histogram: 1 0 0 0 0 0 0 0 0 0
Neighs:              0 ave           0 max           0 min
Histogram: 1 0 0 0 0 0 0 0 0 0
FullNghs:         2688 ave        2688 max        2688 min
Histogram: 1 0 0 0 0 0 0 0 0 0

Total # of neighbors = 2688
Ave neighs/atom = 84
Neighbor list builds = 0
Dangerous builds = 0

next nr
jump ${simname}.in loopmin
jump LCBOP.in loopmin

variable        energy equal pe
fix             output all ave/time 1 1 1 v_energy file ${simname}_energy.data
fix             output all ave/time 1 1 1 v_energy file LCBOP_energy.data
dump            dump1 all custom 1 ${simname}.lammpstrj id type x y z fx fy fz
dump            dump1 all custom 1 LCBOP.lammpstrj id type x y z fx fy fz
dump_modify     dump1 sort id

fix             nve all nve
run             0
Per MPI rank memory allocation (min/avg/max) = 4.024 | 4.024 | 4.024 Mbytes
   Step          Temp          PotEng           Lx             Ly             Lz            Pxx            Pyy            Pzz            Fmax          Fnorm     
       228  2.451212627929586e-18   -235.1993668171794    9.837277396065813    8.519332129067422        49.9812277894 -2.211514182612004e-06 -2.211302570545887e-06 -5.763087846968438e-15 2.344712176759743e-09 4.927147056576751e-09
Loop time of 1.142e-06 on 1 procs for 0 steps with 32 atoms

0.0% CPU use with 1 MPI tasks x no OpenMP threads

MPI task timing breakdown:
Section |  min time  |  avg time  |  max time  |%varavg| %total
---------------------------------------------------------------
Pair    | 0          | 0          | 0          |   0.0 |  0.00
Neigh   | 0          | 0          | 0          |   0.0 |  0.00
Comm    | 0          | 0          | 0          |   0.0 |  0.00
Output  | 0          | 0          | 0          |   0.0 |  0.00
Modify  | 0          | 0          | 0          |   0.0 |  0.00
Other   |            | 1.142e-06  |            |       |100.00

Nlocal:             32 ave          32 max          32 min
Histogram: 1 0 0 0 0 0 0 0 0 0
Nghost:            281 ave         281 max         281 min
Histogram: 1 0 0 0 0 0 0 0 0 0
Neighs:              0 ave           0 max           0 min
Histogram: 1 0 0 0 0 0 0 0 0 0
FullNghs:         2688 ave        2688 max        2688 min
Histogram: 1 0 0 0 0 0 0 0 0 0

Total # of neighbors = 2688
Ave neighs/atom = 84
Neighbor list builds = 0
Dangerous builds = 0
Total wall time: 0:00:00
