ITEM: TIMESTEP
228
ITEM: NUMBER OF ATOMS
32
ITEM: BOX BOUNDS xy xz yz pp pp pp
8.5238522170974305e-03 1.4764444393648256e+01 4.9186386980057950e+00
7.2368457662898436e-03 8.5265724904104339e+00 4.4473595502199677e-06
2.2463800642295968e-16 4.9981227789400002e+01 3.5155767222335743e-06
ITEM: ATOMS id type x y z fx fy fz
1 1 14.7633 8.52569 23.3912 1.20443e-10 1.50314e-10 9.30803e-10
2 1 1.23708 0.716306 23.3912 7.23728e-11 4.32594e-10 7.37093e-11
3 1 11.0744 2.13619 23.3912 6.41798e-12 3.2822e-10 -6.6654e-10
4 1 2.46674 2.84614 23.3912 7.08194e-11 1.38879e-10 1.48386e-10
5 1 12.304 4.26603 23.3912 1.86383e-10 -4.68003e-11 7.3452e-10
6 1 3.6964 4.97597 23.3912 3.59213e-10 -2.47371e-10 -3.25464e-10
7 1 13.5337 6.39586 23.3912 2.92728e-10 -2.13551e-10 -1.55177e-09
8 1 4.92606 7.10581 23.3912 3.69115e-10 4.1292e-11 9.20127e-12
9 1 7.38538 8.52569 23.3912 -1.74461e-10 4.14795e-10 -1.54697e-10
10 1 3.6964 0.716306 23.3912 -2.5188e-10 3.18378e-10 -3.38171e-10
11 1 3.6964 2.13619 23.3912 -2.58535e-10 1.3823e-10 3.75996e-10
12 1 4.92606 2.84614 23.3912 -1.4436e-10 -1.7607e-10 9.63407e-10
13 1 4.92606 4.26603 23.3912 1.5733e-10 -2.58631e-10 4.727e-11
14 1 6.15572 4.97597 23.3912 2.11564e-10 -9.92634e-11 -3.66319e-10
15 1 6.15572 6.39586 23.3912 2.54574e-10 2.16328e-11 4.36329e-12
16 1 7.38538 7.10581 23.3912 1.32183e-10 3.84542e-10 3.67842e-10
17 1 9.8447 8.52569 23.3912 -5.41072e-10 8.2458e-11 -1.92118e-10
18 1 6.15572 0.716306 23.3912 -3.40293e-10 -2.13547e-10 -7.9432e-10
19 1 6.15572 2.13619 23.3912 -3.75514e-10 -2.40923e-10 1.00646e-09
20 1 7.38538 2.84614 23.3912 -1.75365e-10 -2.41033e-10 1.03522e-09
21 1 7.38538 4.26603 23.3912 3.41874e-11 -1.71436e-10 -1.12047e-10
22 1 8.61504 4.97597 23.3912 1.0649e-10 4.45987e-11 -1.28453e-10
23 1 8.61504 6.39586 23.3912 -1.02978e-10 1.423e-10 7.75808e-10
24 1 9.8447 7.10581 23.3912 -4.72247e-11 7.54683e-11 9.21637e-10
25 1 12.304 8.52569 23.3912 -2.53629e-10 -2.02515e-10 -1.98828e-09
26 1 8.61504 0.716306 23.3912 -2.7524e-11 -1.14718e-10 3.61941e-10
27 1 8.61504 2.13619 23.3912 -1.18192e-10 -6.66156e-11 7.62146e-10
28 1 9.8447 2.84614 23.3912 2.92937e-11 6.40866e-11 -4.9883e-10
29 1 9.8447 4.26603 23.3912 5.43867e-11 3.0464e-11 -1.1764e-10
30 1 11.0744 4.97597 23.3912 2.46116e-10 -1.19058e-10 8.90305e-10
31 1 11.0744 6.39586 23.3912 -7.33316e-11 -1.08587e-10 1.70352e-10
32 1 12.304 7.10581 23.3912 1.80745e-10 -2.88132e-10 -2.34471e-09
