ITEM: TIMESTEP
911
ITEM: NUMBER OF ATOMS
32
ITEM: BOX BOUNDS xy xz yz pp pp pp
-7.4479059750023585e-02 1.4930450219934357e+01 5.0016416123240344e+00
-6.4645781519771989e-02 8.5984551176965844e+00 4.4473603111900214e-06
1.4793068553609968e-16 4.9981227789400002e+01 3.5155767485234492e-06
ITEM: ATOMS id type x y z fx fy fz
1 1 14.9293 8.59756 23.3912 -5.01196e-06 3.31172e-06 8.71175e-08
2 1 1.17481 0.656389 23.3912 6.03991e-06 -2.73217e-06 -7.1661e-09
3 1 11.1781 2.10024 23.3912 -6.01721e-06 3.82579e-06 -2.79152e-08
4 1 2.42522 2.82216 23.3912 5.84864e-06 -3.57072e-06 -2.60849e-08
5 1 12.4285 4.26601 23.3912 -5.70374e-06 3.00173e-06 1.03591e-07
6 1 3.67563 4.98794 23.3912 5.55252e-06 -3.37742e-06 -6.45918e-08
7 1 13.6789 6.43179 23.3912 -5.89767e-06 3.16982e-06 -3.07397e-08
8 1 4.92604 7.15371 23.3912 5.40082e-06 -3.27091e-06 -1.49486e-08
9 1 7.42686 8.59756 23.3912 -5.92362e-06 2.78594e-06 -2.3124e-09
10 1 3.67563 0.656389 23.3912 4.99735e-06 -3.00844e-06 -7.3363e-08
11 1 3.67563 2.10024 23.3912 -5.16902e-06 3.56901e-06 8.4264e-08
12 1 4.92604 2.82216 23.3912 6.2655e-06 -3.13104e-06 -1.26449e-08
13 1 4.92604 4.26601 23.3912 -5.70117e-06 3.43389e-06 3.43895e-08
14 1 6.17645 4.98794 23.3912 5.72375e-06 -3.23463e-06 -6.93578e-08
15 1 6.17645 6.43179 23.3912 -5.91293e-06 3.35355e-06 2.7319e-08
16 1 7.42686 7.15371 23.3912 5.7462e-06 -3.76773e-06 -1.79133e-09
17 1 9.92768 8.59756 23.3912 -6.41034e-06 3.44872e-06 1.81375e-08
18 1 6.17645 0.656389 23.3912 5.3206e-06 -3.79514e-06 -8.38502e-08
19 1 6.17645 2.10024 23.3912 -5.47298e-06 2.76937e-06 1.4843e-07
20 1 7.42686 2.82216 23.3912 5.501e-06 -3.10662e-06 -2.25235e-08
21 1 7.42686 4.26601 23.3912 -5.55792e-06 3.46817e-06 6.0262e-08
22 1 8.67727 4.98794 23.3912 5.82834e-06 -3.17261e-06 -1.00554e-07
23 1 8.67727 6.43179 23.3912 -5.29475e-06 3.3851e-06 9.0622e-08
24 1 9.92768 7.15371 23.3912 6.03988e-06 -3.11462e-06 3.47585e-08
25 1 12.4285 8.59756 23.3912 -5.59121e-06 3.6042e-06 -1.26196e-07
26 1 8.67727 0.656389 23.3912 6.13298e-06 -3.62058e-06 3.52569e-08
27 1 8.67727 2.10024 23.3912 -6.14571e-06 2.95669e-06 1.2194e-07
28 1 9.92768 2.82216 23.3912 5.04863e-06 -3.30462e-06 -1.19935e-07
29 1 9.92768 4.26601 23.3912 -5.62759e-06 3.24558e-06 6.17622e-08
30 1 11.1781 4.98794 23.3912 5.76428e-06 -3.35553e-06 -3.60973e-09
31 1 11.1781 6.43179 23.3912 -5.45262e-06 3.19299e-06 1.08241e-07
32 1 12.4285 7.15371 23.3912 5.68005e-06 -2.95948e-06 -2.28506e-07
