units           real
atom_style      charge
boundary        p p p
processors		  * * 1
read_data		    V0_charge.data
Reading data file ...
  triclinic box = (0 0 0) to (9.8543251 8.5338058 49.981228) with tilt (4.9251584 4.447365e-06 3.5155761e-06)
WARNING: Triclinic box skew is large. LAMMPS will run inefficiently. (src/domain.cpp:220)
  1 by 1 by 1 MPI processor grid
  reading atoms ...
  32 atoms
  read_data CPU = 0.006 seconds
mass            1 12.011

# Define potentials
pair_style      reax/c NULL
pair_coeff      * * ffield.reax.cho C
Reading potential file ffield.reax.cho with DATE: 2011-02-18
neigh_modify    every 1 delay 0 check yes
fix             1 all qeq/reax 1 0.0 10.0 1.0e-6 reax/c


# Variable
variable        thermofrq equal 10
variable        Nloop equal 100     # number of loop to run
variable        binding equal pe


# Output
thermo          ${thermofrq}
thermo          10
thermo_style    custom step temp pe lx ly lz pxx pyy pzz fmax fnorm
thermo_modify   line one format float %20.16g
thermo_modify   flush yes norm no lost warn

# Minimize the system in loops
timestep        1.0e-3
variable        nr loop ${Nloop}
variable        nr loop 100
label           loopmin

# Minimize the with cg + box/relax
  fix             frb all box/relax tri 0.0 couple none
  min_style       cg
  min_modify      line quadratic
  minimize        0.0 1.0e-3 10000 10000

CITE-CITE-CITE-CITE-CITE-CITE-CITE-CITE-CITE-CITE-CITE-CITE-CITE

Your simulation uses code contributions which should be cited:

- pair reaxff command: doi:10.1016/j.parco.2011.08.005

@Article{Aktulga12,
 author = {H. M. Aktulga and J. C. Fogarty and S. A. Pandit and A. Y. Grama},
 title = {Parallel Reactive Molecular Dynamics: {N}umerical Methods and Algorithmic Techniques},
 journal = {Parallel Computing},
 year =    2012,
 volume =  38,
 number =  {4--5},
 pages =   {245--259}
}

- fix qeq/reaxff command: doi:10.1016/j.parco.2011.08.005

@Article{Aktulga12,
 author = {H. M. Aktulga and J. C. Fogarty and S. A. Pandit and A. Y. Grama},
 title = {Parallel Reactive Molecular Dynamics: {N}umerical Methods and Algorithmic Techniques},
 journal = {Parallel Computing},
 year =    2012,
 volume =  38,
 pages =   {245--259}
}

CITE-CITE-CITE-CITE-CITE-CITE-CITE-CITE-CITE-CITE-CITE-CITE-CITE

Neighbor list info ...
  update: every = 1 steps, delay = 0 steps, check = yes
  max neighbors/atom: 2000, page size: 100000
  master list distance cutoff = 12
  ghost atom cutoff = 12
  binsize = 6, bins = 3 2 9
  2 neighbor lists, perpetual/occasional/extra = 2 0 0
  (1) pair reax/c, perpetual
      attributes: half, newton off, ghost
      pair build: half/bin/newtoff/ghost
      stencil: full/ghost/bin/3d
      bin: standard
  (2) fix qeq/reax, perpetual, copy from (1)
      attributes: half, newton off
      pair build: copy
      stencil: none
      bin: none
WARNING: Energy due to 6 extra global DOFs will be included in minimizer energies
 (src/min.cpp:225)
Per MPI rank memory allocation (min/avg/max) = 13.4 | 13.4 | 13.4 Mbytes
   Step          Temp          PotEng           Lx             Ly             Lz            Pxx            Pyy            Pzz            Fmax          Fnorm     
         0                     0    -6040.34874530418    9.854325100500001         8.5338058206        49.9812277894    173763.9364590114    173754.3180640163 1.199306834177344e-13   0.5223673335737118    2.988499396592927
        10                     0   -6061.626453918551    9.864179425600495    8.542339147835808        49.9812277894    173244.4704672504    173234.7712310045 1.202504825692899e-13  0.08046720185313699   0.4631729414276163
        20                     0   -6082.856647936968    9.874033750700992     8.55087249193932        49.9812277894    172765.3442968268    172756.5427761272 1.206329093368615e-13   0.5060213127549062    2.899421943135379
        30                     0   -6104.045914386274    9.883888075801487    8.559405901252621        49.9812277894    172354.7531251657    172347.8174092877 1.211152431863935e-13    1.041903219138614    5.912445336293816
        40                     0   -6125.205540958382    9.893742400901983    8.567939423958213        49.9812277894    172062.3885383625    172058.2780346942 1.21769041578497e-13    1.592651424958643    9.021913277770206
        50                     0   -6146.354927490373    9.903596726002478    8.576473108044572        49.9812277894     171972.218669699    171971.8903734462 1.227089395107313e-13    2.158669214490293    12.22080231445984
        60                     0   -6167.526561437794    9.913450948464941    8.585006912409114        49.9812277894    172217.7167499541    172222.1397030313 1.241197597471185e-13    2.740564572773467    15.51070746627065
        70                     0   -6188.772865366393    9.923304876171207    8.593540718229718        49.9812277894    172989.6207714041    172999.8030346319 1.262657274584522e-13    3.339326357918869    18.89660401640029
        80                     0   -6210.172485988555    9.933158452926977    8.602074524050325        49.9812277894    174501.9606269185     174518.987366049 1.294431700372562e-13    3.956538978355218    22.38718437869675
        90                     0   -6231.824585896551    9.943011625141475    8.610608329870931        49.9812277894    176819.2042405983    176844.2546675585 1.337425932723831e-13    4.594291165348364    25.99413583035038
       100                     0   -6253.802422893815    9.952864341644073    8.619142135691536        49.9812277894     179312.641749797    179346.8487877098 1.382944502057548e-13    5.253644144536043    29.72344009537287
       110                     0   -6275.995942676284    9.962716557103501    8.627675941512143        49.9812277894    179341.6456942755    179385.3970624769 1.394479706172131e-13     5.92845149216412    33.54043726701081
       120                     0    -6297.73051580599    9.972568239195787    8.636209747332749        49.9812277894    170063.1452375243    170114.0444040447 1.277254657443938e-13    6.589071634493235    37.27757262896979
       130                     0   -6317.161764270185    9.982419384323926    8.644743553153354        49.9812277894    139895.2558592155    139944.5102784246 8.706846579912712e-14    7.158380596190311    40.49853914980427
       140                     0   -6331.092093114382    9.992270076757139    8.653277358973961        49.9812277894    81374.10173629953    81405.29125097266 7.116973633483661e-15    7.521376542903678    42.55529270376377
       150                     0   -6336.616459418092    10.00212122950697    8.661811164794567        49.9812277894    9104.854414829113    9103.353804953091 -9.179636680770879e-14    7.588912160483083    42.94585351078925
       160                     0   -6336.852270311751    10.00378823440094    8.663239397777559        49.9812277894   -2091.359814283536   -2098.809630764197 -1.066343244368621e-13    6.424358909940281    36.35772500618872
       170                     0   -6337.011786274729    10.00323625370689    8.662742290094366        49.9812277894    1590.805376111206     1584.85202322563 -1.011069899852012e-13    5.244560433035461    29.68168854154233
       180                     0   -6337.130043768914    10.00375519403935     8.66317188656827        49.9812277894   -1788.446460351094   -1794.424532263597 -1.050559542978257e-13    4.142543365224483    23.44732274683509
       190                     0   -6337.227308642158    10.00337181689936    8.662821013325154        49.9812277894    790.4955284749097    786.0731496517272 -1.008822050614094e-13    3.116628059387004    17.64384663682971
       200                     0   -6337.299492720354    10.00377187500072    8.663148831873709        49.9812277894   -1792.855489225811   -1795.983753592766 -1.033795512031197e-13    2.068871973116126    11.71917466355829
       210                     0   -6337.354246300734    10.00346410992461    8.662868741546548        49.9812277894    274.0244678522296    272.5902009643885 -9.947595321079377e-14    1.124540803695708    6.384298421261974
       220                     0   -6337.388372235566    10.00365179323472      8.6630251452865        49.9812277894    -948.715671212026   -948.4881426999136 -9.923445899867617e-14    0.172903330792389    1.090498337191398
       230                     0   -6337.407145772633    10.00341616924327    8.662837955998524        49.9812277894    541.3072648203731    542.9448899021826 -9.359332581050757e-14    0.742622158841975    4.220584200390562
       240                     0   -6337.413956846249    10.00352230588322    8.663108679099826        49.9812277894   -835.0140228903001   -834.8880404349503 -7.763992875989392e-14   0.6919116198925448    3.920707628020157
       250                     0   -6337.417357913279    10.00325495547697    8.663121460641269        49.9812277894    3.429609496575294  -0.3711027079160811 -4.488749824798388e-14 0.005498407031108822  0.03887640396627862
       260                     0   -6337.417358330299    10.00328193668335    8.663098542717162        49.9812277894  -0.1636131646552618  -0.2038048057661855 -4.006504114542445e-14 0.001570500773855177 0.009048027794411129
       262                     0   -6337.417358313935    10.00328188166439    8.663098484048152        49.9812277894   0.2423768979727251   0.2021914565769399 -4.001014918751262e-14 0.001566089387249087 0.009022872288230266
Loop time of 0.711969 on 1 procs for 262 steps with 32 atoms

93.7% CPU use with 1 MPI tasks x no OpenMP threads

Minimization stats:
  Stopping criterion = linesearch alpha is zero
  Energy initial, next-to-last, final = 
     -6040.34874530418  -6337.41735832719  -6337.41735831394
  Force two-norm initial, final = 15063.125 0.022800609
  Force max component initial, final = 10651.533 0.015082529
  Final line search alpha, max atom move = 3.8991915e-05 5.880967e-07
  Iterations, force evaluations = 262 364

MPI task timing breakdown:
Section |  min time  |  avg time  |  max time  |%varavg| %total
---------------------------------------------------------------
Pair    | 0.64218    | 0.64218    | 0.64218    |   0.0 | 90.20
Neigh   | 0          | 0          | 0          |   0.0 |  0.00
Comm    | 0.00090371 | 0.00090371 | 0.00090371 |   0.0 |  0.13
Output  | 0.019387   | 0.019387   | 0.019387   |   0.0 |  2.72
Modify  | 0.045786   | 0.045786   | 0.045786   |   0.0 |  6.43
Other   |            | 0.003712   |            |       |  0.52

Nlocal:             32 ave          32 max          32 min
Histogram: 1 0 0 0 0 0 0 0 0 0
Nghost:            418 ave         418 max         418 min
Histogram: 1 0 0 0 0 0 0 0 0 0
Neighs:           4887 ave        4887 max        4887 min
Histogram: 1 0 0 0 0 0 0 0 0 0

Total # of neighbors = 4887
Ave neighs/atom = 152.71875
Neighbor list builds = 0
Dangerous builds = 0

# Minimize the with fire
  unfix           frb
  min_style       fire
  minimize        0.0 1.0e-3 10000 10000
  Parameters for fire:
    dmax  delaystep dtgrow dtshrink alpha0 alphashrink tmax tmin   integrator   halfstepback   abcfire  
     0.1     20      1.1     0.5     0.25     0.99      10  0.02 eulerimplicit      yes          no     
Per MPI rank memory allocation (min/avg/max) = 12.28 | 12.28 | 12.28 Mbytes
   Step          Temp          PotEng           Lx             Ly             Lz            Pxx            Pyy            Pzz            Fmax          Fnorm     
       262                     0   -6337.417358295664    10.00328188166439    8.663098484048152        49.9812277894   0.2423763476241385    0.202190778752672 -4.001005110411398e-14 0.001566086937160399 0.009022876026620254
       270  5.994255770270667e-13   -6337.417358280914    10.00328188166439    8.663098484048152        49.9812277894   0.2423758092696348   0.2021899192958986 -4.00103022221414e-14 0.001566084569303239 0.009022833648215994
       280  2.901191425446752e-12    -6337.41735825757    10.00328188166439    8.663098484048152        49.9812277894   0.2423769362991156   0.2021899573168612 -4.000999350139731e-14  0.00156606300204476 0.009022718312350114
       290  8.77500192447423e-12   -6337.417358284614    10.00328188166439    8.663098484048152        49.9812277894   0.2423785500237831   0.2021884043627704 -4.00098521352705e-14 0.001565999669724538 0.009022351810501962
       300  3.916575397741427e-11   -6337.417358268384    10.00328188166439    8.663098484048152        49.9812277894   0.2423850623573988   0.2021802864491807 -4.000835797060258e-14  0.00156569460396519 0.009020594660062997
       310  2.087850913538446e-10   -6337.417358163422    10.00328188166439    8.663098484048152        49.9812277894   0.2424217420396653   0.2021369897244071 -3.999713777672826e-14 0.001564040397299016 0.009011041813488082
       320  6.030174626763191e-10   -6337.417358288814    10.00328188166439    8.663098484048152        49.9812277894   0.2425160086415848   0.2020508224563791 -3.997062488298933e-14 0.001560316379077609 0.008989589756830821
       330  1.214420674185109e-09   -6337.417358326353    10.00328188166439    8.663098484048152        49.9812277894   0.2426532553163298   0.2019157761971584 -3.992977388244846e-14 0.001554698441554841 0.008957174123177271
       340  2.051287649977514e-09   -6337.417358246745    10.00328188166439    8.663098484048152        49.9812277894   0.2428336558064066   0.2017303820544635 -3.987405359307257e-14 0.001547150506124723   0.0089136252339181
       350  3.119321638463872e-09   -6337.417358273762    10.00328188166439    8.663098484048152        49.9812277894   0.2430650144234299   0.2015010999001164 -3.980286837098118e-14 0.001537636428762756 0.008858798045258597
       360  4.421674728985298e-09   -6337.417358315283    10.00328188166439    8.663098484048152        49.9812277894   0.2433445696585264   0.2012245740349893 -3.971590748236184e-14 0.001526158297260882 0.008792590027735747
       370  5.959005202483267e-09    -6337.41735832726    10.00328188166439    8.663098484048152        49.9812277894   0.2436711367749534   0.2008986853769904 -3.961186124927528e-14 0.001512692725042369 0.008714916525510288
       380  7.729553677953185e-09   -6337.417358300298    10.00328188166439    8.663098484048152        49.9812277894   0.2440449804978519   0.2005235231749357 -3.949034430685301e-14 0.001497231884587141 0.008625750127310006
       390  9.729234473215335e-09   -6337.417358325141    10.00328188166439    8.663098484048152        49.9812277894   0.2444687765688308   0.2001016202269703 -3.935087572437087e-14 0.001479774151132124  0.00852507245401639
       400  1.195173600152804e-08   -6337.417358327885    10.00328188166439    8.663098484048152        49.9812277894   0.2449401819171912   0.1996308078609808 -3.919259010135794e-14  0.00146032773438004 0.008412911887240065
       410  1.43886424465666e-08   -6337.417358249232    10.00328188166439    8.663098484048152        49.9812277894   0.2454576616456726   0.1991096730967447 -3.901434139043464e-14 0.001438896041672078  0.00828930815223093
       420  1.702955491727975e-08   -6337.417358331926    10.00328188166439    8.663098484048152        49.9812277894   0.2460265878971521   0.1985453560353553 -3.881527031510882e-14 0.001415495663334765  0.00815435674347632
       430  1.986222851555433e-08   -6337.417358295323    10.00328188166439    8.663098484048152        49.9812277894   0.2466399715134087   0.1979304347894482 -3.859482890110832e-14 0.001390144679946526 0.008008143783693239
       440  2.287271167932064e-08   -6337.417358314313    10.00328188166439    8.663098484048152        49.9812277894   0.2473016351720798    0.197270478122926 -3.835198051472923e-14  0.00136286313625017 0.007850812108783703
       450  2.604549586584453e-08   -6337.417358251218    10.00328188166439    8.663098484048152        49.9812277894   0.2480066319867026   0.1965618181749246 -3.808568644934994e-14  0.00133367836418441 0.007682511860470045
       460  2.936366647771253e-08   -6337.417358305218    10.00328188166439    8.663098484048152        49.9812277894    0.248761067381279   0.1958116986911524 -3.779460236243638e-14 0.001302626772772236 0.007503420007765572
       470  3.280906008607316e-08   -6337.417358315685    10.00328188166439    8.663098484048152        49.9812277894   0.2495582455184315   0.1950157752344249 -3.747689326227987e-14 0.001269734204004447 0.007313745573358723
       480  3.63624238524881e-08   -6337.417358291159    10.00328188166439    8.663098484048152        49.9812277894   0.2503981947388853   0.1941753412202226 -3.713209335213237e-14 0.001235048002154043  0.00711370474905236
       490  4.000357448841449e-08     -6337.4173582802    10.00328188166439    8.663098484048152        49.9812277894    0.251280698836559   0.1932922734810101 -3.675776864621774e-14 0.001198604709304801  0.00690354619628279
       500  4.371156435288745e-08   -6337.417358274277    10.00328188166439    8.663098484048152        49.9812277894   0.2522047180527092   0.1923683986463455 -3.635273764239206e-14  0.00116044907672963 0.006683534897559669
       510  4.746483872993197e-08   -6337.417358309738    10.00328188166439    8.663098484048152        49.9812277894   0.2531707470319342   0.1914055737948798 -3.59149884726074e-14 0.001120646215090282 0.006453958133707138
       520  5.12414040041644e-08   -6337.417358322339    10.00328188166439    8.663098484048152        49.9812277894   0.2541741393441689   0.1904030106808995 -3.544228584372543e-14 0.001079229604373871 0.006215121698692787
       530  5.501898433651779e-08   -6337.417358276909    10.00328188166439    8.663098484048152        49.9812277894    0.255214678170764   0.1893619433543964 -3.493235249369649e-14  0.00103626481370514  0.00596733326315394
       540  5.877518111503323e-08   -6337.417358298394    10.00328188166439    8.663098484048152        49.9812277894    0.256292494151212   0.1882857114648544 -3.438198078434325e-14 0.0009917997452313365 0.005710938485352517
       550  6.248763060099214e-08   -6337.417358327168    10.00328188166439    8.663098484048152        49.9812277894   0.2574044267536872   0.1871750527779228 -3.37883193162977e-14 0.000945906727259721 0.005446301187722777
       560  6.613415649321635e-08    -6337.41735831953    10.00328188166439    8.663098484048152        49.9812277894   0.2585493413633337   0.1860306839485031 -3.31478630486775e-14 0.0008986466035179885 0.005173773525443175
       570  6.969291228841885e-08   -6337.417358332992    10.00328188166439    8.663098484048152        49.9812277894   0.2597262206067865   0.1848551385693981 -3.245596348729278e-14 0.0008500822627464377 0.004893735474717275
       580  7.314253938483628e-08   -6337.417358291306    10.00328188166439    8.663098484048152        49.9812277894    0.260931270756123   0.1836482141493387 -3.170759086694344e-14 0.0008002890497444959 0.004606595333729127
       590  7.646229306054519e-08   -6337.417358299368    10.00328188166439    8.663098484048152        49.9812277894   0.2621660315290588   0.1824146285791708 -3.089672789948833e-14 0.0007493274120742299  0.00431275115366184
       600  7.963218206649399e-08   -6337.417358292992    10.00328188166439    8.663098484048152        49.9812277894   0.2634270986010007   0.1811546640400586 -3.001647040067747e-14 0.0006972823451679988 0.004012634762429175
       610  8.263309735014818e-08   -6337.417358283541    10.00328188166439    8.663098484048152        49.9812277894   0.2647117408643697   0.1798690498932798 -2.905653965796129e-14 0.0006442139082491749 0.003706652899051149
       620  8.54469258552382e-08   -6337.417358318265    10.00328188166439    8.663098484048152        49.9812277894   0.2660210123185727   0.1785627233067086 -2.80051191323324e-14 0.0005902109807452982 0.003395271617544352
       630  8.805666953360357e-08   -6337.417358317308    10.00328188166439    8.663098484048152        49.9812277894   0.2673501256419978   0.1772344506394825 -2.684718645192218e-14 0.0005353439795145465 0.003078929001625904
       640  9.044654778530043e-08   -6337.417358311147    10.00328188166439    8.663098484048152        49.9812277894   0.2686976085031438   0.1758867668207676 -2.556015732680316e-14 0.0004796992125141453 0.002758085365423204
       650  9.260209333459628e-08   -6337.417358304035    10.00328188166439    8.663098484048152        49.9812277894   0.2700622470683245    0.174522460831546 -2.411459207155723e-14 0.0004233535165994173  0.00243320871335657
       660  9.451023829486836e-08   -6337.417358318642    10.00328188166439    8.663098484048152        49.9812277894    0.271442342239813   0.1731435803274357 -2.246602140739436e-14 0.000366388394159145 0.002104769141530933
       670  9.61594010739306e-08   -6337.417358330416    10.00328188166439    8.663098484048152        49.9812277894   0.2728355262659691   0.1717519052212635 -2.054601196857776e-14 0.0003088874316237167 0.001773246850924132
       680  9.753954540042804e-08   -6337.417358317763    10.00328188166439    8.663098484048152        49.9812277894   0.2742388481281127   0.1703485795084055 -1.823806417353099e-14 0.0002509332242300877  0.00143912688384078
       690  9.864223868051861e-08   -6337.417358301665    10.00328188166439    8.663098484048152        49.9812277894    0.275650904247687   0.1689360850894666 -1.532634749953951e-14 0.0001926127243694897 0.001102897589365621
       694  9.900405573847462e-08   -6337.417358285499    10.00328188166439    8.663098484048152        49.9812277894   0.2762175580394707   0.1683691378789495 -1.390350132748717e-14 0.0001692081155181546 0.0009679343082686638
Loop time of 0.938251 on 1 procs for 432 steps with 32 atoms

87.0% CPU use with 1 MPI tasks x no OpenMP threads

Minimization stats:
  Stopping criterion = force tolerance
  Energy initial, next-to-last, final = 
     -6337.41735829566  -6337.41735823836   -6337.4173582855
  Force two-norm initial, final = 0.009022876 0.00096793431
  Force max component initial, final = 0.0015660869 0.00016920812
  Final line search alpha, max atom move = 0 0
  Iterations, force evaluations = 432 433

MPI task timing breakdown:
Section |  min time  |  avg time  |  max time  |%varavg| %total
---------------------------------------------------------------
Pair    | 0.76481    | 0.76481    | 0.76481    |   0.0 | 81.51
Neigh   | 0          | 0          | 0          |   0.0 |  0.00
Comm    | 0.0015784  | 0.0015784  | 0.0015784  |   0.0 |  0.17
Output  | 0.10598    | 0.10598    | 0.10598    |   0.0 | 11.30
Modify  | 0.058698   | 0.058698   | 0.058698   |   0.0 |  6.26
Other   |            | 0.007184   |            |       |  0.77

Nlocal:             32 ave          32 max          32 min
Histogram: 1 0 0 0 0 0 0 0 0 0
Nghost:            418 ave         418 max         418 min
Histogram: 1 0 0 0 0 0 0 0 0 0
Neighs:           4887 ave        4887 max        4887 min
Histogram: 1 0 0 0 0 0 0 0 0 0

Total # of neighbors = 4887
Ave neighs/atom = 152.71875
Neighbor list builds = 0
Dangerous builds = 0

next nr
jump ${simname}.in loopmin
jump ReaxFF.in loopmin

# Minimize the with cg + box/relax
  fix             frb all box/relax tri 0.0 couple none
  min_style       cg
  min_modify      line quadratic
  minimize        0.0 1.0e-3 10000 10000
WARNING: Energy due to 6 extra global DOFs will be included in minimizer energies
 (src/min.cpp:225)
Per MPI rank memory allocation (min/avg/max) = 13.4 | 13.4 | 13.4 Mbytes
   Step          Temp          PotEng           Lx             Ly             Lz            Pxx            Pyy            Pzz            Fmax          Fnorm     
       694  9.900405573847462e-08   -6337.417358315288    10.00328188166439    8.663098484048152        49.9812277894    0.276218614283154   0.1683695815290046 -1.390367014167787e-14 0.0001692006502316268 0.0009679254203337028
       700  9.900405573847462e-08   -6337.417358302335    10.00328220627877    8.663098248051391        49.9812277894   0.1130711501792624 -0.01313986143960626 -9.191028134917949e-15 0.0001520778569954473 0.000863439945127729
       705  9.900405573847462e-08   -6337.417358330626    10.00328296968994    8.663097344077549        49.9812277894   0.9767896931622234   0.9778217352760077 -8.543884552489451e-15 6.308426745707529e-05 0.000418790068748718
Loop time of 0.112024 on 1 procs for 11 steps with 32 atoms

95.5% CPU use with 1 MPI tasks x no OpenMP threads

Minimization stats:
  Stopping criterion = linesearch alpha is zero
  Energy initial, next-to-last, final = 
     -6337.41735831529  -6337.41735833517  -6337.41735833063
  Force two-norm initial, final = 0.021068562 0.08730769
  Force max component initial, final = 0.017448218 0.061767254
  Final line search alpha, max atom move = 1.5810358e-06 9.7656242e-08
  Iterations, force evaluations = 11 65

MPI task timing breakdown:
Section |  min time  |  avg time  |  max time  |%varavg| %total
---------------------------------------------------------------
Pair    | 0.10251    | 0.10251    | 0.10251    |   0.0 | 91.51
Neigh   | 0          | 0          | 0          |   0.0 |  0.00
Comm    | 0.00013545 | 0.00013545 | 0.00013545 |   0.0 |  0.12
Output  | 0.00058204 | 0.00058204 | 0.00058204 |   0.0 |  0.52
Modify  | 0.0078425  | 0.0078425  | 0.0078425  |   0.0 |  7.00
Other   |            | 0.0009555  |            |       |  0.85

Nlocal:             32 ave          32 max          32 min
Histogram: 1 0 0 0 0 0 0 0 0 0
Nghost:            418 ave         418 max         418 min
Histogram: 1 0 0 0 0 0 0 0 0 0
Neighs:           4887 ave        4887 max        4887 min
Histogram: 1 0 0 0 0 0 0 0 0 0

Total # of neighbors = 4887
Ave neighs/atom = 152.71875
Neighbor list builds = 0
Dangerous builds = 0

# Minimize the with fire
  unfix           frb
  min_style       fire
  minimize        0.0 1.0e-3 10000 10000
  Parameters for fire:
    dmax  delaystep dtgrow dtshrink alpha0 alphashrink tmax tmin   integrator   halfstepback   abcfire  
     0.1     20      1.1     0.5     0.25     0.99      10  0.02 eulerimplicit      yes          no     
Per MPI rank memory allocation (min/avg/max) = 12.28 | 12.28 | 12.28 Mbytes
   Step          Temp          PotEng           Lx             Ly             Lz            Pxx            Pyy            Pzz            Fmax          Fnorm     
       705                     0   -6337.417358329858    10.00328296968994    8.663097344077549        49.9812277894   0.9767895428413838   0.9778218895385358 -2.71112025945518e-14 6.308439947502742e-05 0.0004187910974983248
       706  3.305830604401907e-17   -6337.417358292654    10.00328296968994    8.663097344077549        49.9812277894   0.9767880951296449   0.9778204297520378 -2.711105556303907e-14 6.308532000037781e-05 0.0004187908441719887
Loop time of 0.00563166 on 1 procs for 1 steps with 32 atoms

61.7% CPU use with 1 MPI tasks x no OpenMP threads

Minimization stats:
  Stopping criterion = force tolerance
  Energy initial, next-to-last, final = 
     -6337.41735832986  -6337.41735832986  -6337.41735829265
  Force two-norm initial, final = 0.0004187911 0.00041879084
  Force max component initial, final = 6.3084399e-05 6.308532e-05
  Final line search alpha, max atom move = 0 0
  Iterations, force evaluations = 1 2

MPI task timing breakdown:
Section |  min time  |  avg time  |  max time  |%varavg| %total
---------------------------------------------------------------
Pair    | 0.004798   | 0.004798   | 0.004798   |   0.0 | 85.20
Neigh   | 0          | 0          | 0          |   0.0 |  0.00
Comm    | 8.53e-06   | 8.53e-06   | 8.53e-06   |   0.0 |  0.15
Output  | 0          | 0          | 0          |   0.0 |  0.00
Modify  | 0.00037164 | 0.00037164 | 0.00037164 |   0.0 |  6.60
Other   |            | 0.0004535  |            |       |  8.05

Nlocal:             32 ave          32 max          32 min
Histogram: 1 0 0 0 0 0 0 0 0 0
Nghost:            418 ave         418 max         418 min
Histogram: 1 0 0 0 0 0 0 0 0 0
Neighs:           4887 ave        4887 max        4887 min
Histogram: 1 0 0 0 0 0 0 0 0 0

Total # of neighbors = 4887
Ave neighs/atom = 152.71875
Neighbor list builds = 0
Dangerous builds = 0

next nr
jump ${simname}.in loopmin
jump ReaxFF.in loopmin

# Minimize the with cg + box/relax
  fix             frb all box/relax tri 0.0 couple none
  min_style       cg
  min_modify      line quadratic
  minimize        0.0 1.0e-3 10000 10000
WARNING: Energy due to 6 extra global DOFs will be included in minimizer energies
 (src/min.cpp:225)
Per MPI rank memory allocation (min/avg/max) = 13.4 | 13.4 | 13.4 Mbytes
   Step          Temp          PotEng           Lx             Ly             Lz            Pxx            Pyy            Pzz            Fmax          Fnorm     
       706  3.305830604401907e-17   -6337.417358216048    10.00328296968994    8.663097344077549        49.9812277894   0.9767858114426031   0.9778181092111292 -2.711092294722933e-14 6.308562929055461e-05 0.0004187918677772731
       708  3.305830604401907e-17   -6337.417358205483    10.00328312033422    8.663097474677205        49.9812277894  -0.0201248242426946 -0.01911376035732252 -2.710912731274096e-14 7.195914796739866e-05 0.0004615296665186734
Loop time of 0.0155178 on 1 procs for 2 steps with 32 atoms

97.8% CPU use with 1 MPI tasks x no OpenMP threads

Minimization stats:
  Stopping criterion = linesearch alpha is zero
  Energy initial, next-to-last, final = 
     -6337.41735821605  -6337.41735831858  -6337.41735820548
  Force two-norm initial, final = 0.087307367 0.0018175481
  Force max component initial, final = 0.061767018 0.0012712491
  Final line search alpha, max atom move = 0.045912822 5.8366634e-05
  Iterations, force evaluations = 2 8

MPI task timing breakdown:
Section |  min time  |  avg time  |  max time  |%varavg| %total
---------------------------------------------------------------
Pair    | 0.013952   | 0.013952   | 0.013952   |   0.0 | 89.91
Neigh   | 0          | 0          | 0          |   0.0 |  0.00
Comm    | 1.8683e-05 | 1.8683e-05 | 1.8683e-05 |   0.0 |  0.12
Output  | 0          | 0          | 0          |   0.0 |  0.00
Modify  | 0.0010307  | 0.0010307  | 0.0010307  |   0.0 |  6.64
Other   |            | 0.0005169  |            |       |  3.33

Nlocal:             32 ave          32 max          32 min
Histogram: 1 0 0 0 0 0 0 0 0 0
Nghost:            418 ave         418 max         418 min
Histogram: 1 0 0 0 0 0 0 0 0 0
Neighs:           4887 ave        4887 max        4887 min
Histogram: 1 0 0 0 0 0 0 0 0 0

Total # of neighbors = 4887
Ave neighs/atom = 152.71875
Neighbor list builds = 0
Dangerous builds = 0

# Minimize the with fire
  unfix           frb
  min_style       fire
  minimize        0.0 1.0e-3 10000 10000
  Parameters for fire:
    dmax  delaystep dtgrow dtshrink alpha0 alphashrink tmax tmin   integrator   halfstepback   abcfire  
     0.1     20      1.1     0.5     0.25     0.99      10  0.02 eulerimplicit      yes          no     
Per MPI rank memory allocation (min/avg/max) = 12.28 | 12.28 | 12.28 Mbytes
   Step          Temp          PotEng           Lx             Ly             Lz            Pxx            Pyy            Pzz            Fmax          Fnorm     
       708                     0   -6337.417358339783    10.00328312033422    8.663097474677205        49.9812277894  -0.0201207598853739 -0.01910961408535142 -2.710910948492199e-14 7.196201890258269e-05 0.000461528471241457
       709  4.014992708370785e-17   -6337.417358321185    10.00328312033422    8.663097474677205        49.9812277894 -0.02012092248241625 -0.01910985538563732 -2.710912870081846e-14 7.196264738745795e-05 0.0004615318907799319
Loop time of 0.00504359 on 1 procs for 1 steps with 32 atoms

92.8% CPU use with 1 MPI tasks x no OpenMP threads

Minimization stats:
  Stopping criterion = force tolerance
  Energy initial, next-to-last, final = 
     -6337.41735833978  -6337.41735833978  -6337.41735832119
  Force two-norm initial, final = 0.00046152847 0.00046153189
  Force max component initial, final = 7.1962019e-05 7.1962647e-05
  Final line search alpha, max atom move = 0 0
  Iterations, force evaluations = 1 2

MPI task timing breakdown:
Section |  min time  |  avg time  |  max time  |%varavg| %total
---------------------------------------------------------------
Pair    | 0.0042525  | 0.0042525  | 0.0042525  |   0.0 | 84.32
Neigh   | 0          | 0          | 0          |   0.0 |  0.00
Comm    | 6.623e-06  | 6.623e-06  | 6.623e-06  |   0.0 |  0.13
Output  | 0          | 0          | 0          |   0.0 |  0.00
Modify  | 0.00032317 | 0.00032317 | 0.00032317 |   0.0 |  6.41
Other   |            | 0.0004613  |            |       |  9.15

Nlocal:             32 ave          32 max          32 min
Histogram: 1 0 0 0 0 0 0 0 0 0
Nghost:            418 ave         418 max         418 min
Histogram: 1 0 0 0 0 0 0 0 0 0
Neighs:           4887 ave        4887 max        4887 min
Histogram: 1 0 0 0 0 0 0 0 0 0

Total # of neighbors = 4887
Ave neighs/atom = 152.71875
Neighbor list builds = 0
Dangerous builds = 0

next nr
jump ${simname}.in loopmin
jump ReaxFF.in loopmin

# Minimize the with cg + box/relax
  fix             frb all box/relax tri 0.0 couple none
  min_style       cg
  min_modify      line quadratic
  minimize        0.0 1.0e-3 10000 10000
WARNING: Energy due to 6 extra global DOFs will be included in minimizer energies
 (src/min.cpp:225)
Per MPI rank memory allocation (min/avg/max) = 13.4 | 13.4 | 13.4 Mbytes
   Step          Temp          PotEng           Lx             Ly             Lz            Pxx            Pyy            Pzz            Fmax          Fnorm     
       709  4.014992708370785e-17   -6337.417358300219    10.00328312033422    8.663097474677205        49.9812277894 -0.02012131760251851 -0.01911054397170975 -2.710918926345857e-14 7.19619479943312e-05 0.0004615307071972094
       710  4.014992708370785e-17   -6337.417358305549    10.00328311711957    8.663097472033083        49.9812277894 0.0006173617153777621 0.001606813413858377 -2.710624880463333e-14 7.17368979710753e-05 0.0004602503439582757
Loop time of 0.00496718 on 1 procs for 1 steps with 32 atoms

94.1% CPU use with 1 MPI tasks x no OpenMP threads

Minimization stats:
  Stopping criterion = force tolerance
  Energy initial, next-to-last, final = 
     -6337.41735830022  -6337.41735830022  -6337.41735830555
  Force two-norm initial, final = 0.0018172585 0.00049136383
  Force max component initial, final = 0.0012710276 0.00013336066
  Final line search alpha, max atom move = 0.078676497 1.0492349e-05
  Iterations, force evaluations = 1 2

MPI task timing breakdown:
Section |  min time  |  avg time  |  max time  |%varavg| %total
---------------------------------------------------------------
Pair    | 0.0041842  | 0.0041842  | 0.0041842  |   0.0 | 84.24
Neigh   | 0          | 0          | 0          |   0.0 |  0.00
Comm    | 7.09e-06   | 7.09e-06   | 7.09e-06   |   0.0 |  0.14
Output  | 0          | 0          | 0          |   0.0 |  0.00
Modify  | 0.000361   | 0.000361   | 0.000361   |   0.0 |  7.27
Other   |            | 0.0004149  |            |       |  8.35

Nlocal:             32 ave          32 max          32 min
Histogram: 1 0 0 0 0 0 0 0 0 0
Nghost:            418 ave         418 max         418 min
Histogram: 1 0 0 0 0 0 0 0 0 0
Neighs:           4887 ave        4887 max        4887 min
Histogram: 1 0 0 0 0 0 0 0 0 0

Total # of neighbors = 4887
Ave neighs/atom = 152.71875
Neighbor list builds = 0
Dangerous builds = 0

# Minimize the with fire
  unfix           frb
  min_style       fire
  minimize        0.0 1.0e-3 10000 10000
  Parameters for fire:
    dmax  delaystep dtgrow dtshrink alpha0 alphashrink tmax tmin   integrator   halfstepback   abcfire  
     0.1     20      1.1     0.5     0.25     0.99      10  0.02 eulerimplicit      yes          no     
Per MPI rank memory allocation (min/avg/max) = 12.28 | 12.28 | 12.28 Mbytes
   Step          Temp          PotEng           Lx             Ly             Lz            Pxx            Pyy            Pzz            Fmax          Fnorm     
       710                     0   -6337.417358308611    10.00328311711957    8.663097472033083        49.9812277894 0.0006179331846441099 0.001607267642848137 -2.710615460129763e-14 7.173530106729942e-05 0.0004602516979525838
       711  3.992760577956628e-17   -6337.417358315235    10.00328311711957    8.663097472033083        49.9812277894 0.0006179266121409116 0.001607300977514026 -2.710631146142959e-14 7.173675650434808e-05 0.0004602513791453126
Loop time of 0.00694433 on 1 procs for 1 steps with 32 atoms

93.5% CPU use with 1 MPI tasks x no OpenMP threads

Minimization stats:
  Stopping criterion = force tolerance
  Energy initial, next-to-last, final = 
     -6337.41735830861  -6337.41735830861  -6337.41735831524
  Force two-norm initial, final = 0.0004602517 0.00046025138
  Force max component initial, final = 7.1735301e-05 7.1736757e-05
  Final line search alpha, max atom move = 0 0
  Iterations, force evaluations = 1 2

MPI task timing breakdown:
Section |  min time  |  avg time  |  max time  |%varavg| %total
---------------------------------------------------------------
Pair    | 0.0053927  | 0.0053927  | 0.0053927  |   0.0 | 77.66
Neigh   | 0          | 0          | 0          |   0.0 |  0.00
Comm    | 9.337e-06  | 9.337e-06  | 9.337e-06  |   0.0 |  0.13
Output  | 0          | 0          | 0          |   0.0 |  0.00
Modify  | 0.00095982 | 0.00095982 | 0.00095982 |   0.0 | 13.82
Other   |            | 0.0005825  |            |       |  8.39

Nlocal:             32 ave          32 max          32 min
Histogram: 1 0 0 0 0 0 0 0 0 0
Nghost:            418 ave         418 max         418 min
Histogram: 1 0 0 0 0 0 0 0 0 0
Neighs:           4887 ave        4887 max        4887 min
Histogram: 1 0 0 0 0 0 0 0 0 0

Total # of neighbors = 4887
Ave neighs/atom = 152.71875
Neighbor list builds = 0
Dangerous builds = 0

next nr
jump ${simname}.in loopmin
jump ReaxFF.in loopmin

# Minimize the with cg + box/relax
  fix             frb all box/relax tri 0.0 couple none
  min_style       cg
  min_modify      line quadratic
  minimize        0.0 1.0e-3 10000 10000
WARNING: Energy due to 6 extra global DOFs will be included in minimizer energies
 (src/min.cpp:225)
Per MPI rank memory allocation (min/avg/max) = 13.4 | 13.4 | 13.4 Mbytes
   Step          Temp          PotEng           Lx             Ly             Lz            Pxx            Pyy            Pzz            Fmax          Fnorm     
       711  3.992760577956628e-17   -6337.417358330425    10.00328311711957    8.663097472033083        49.9812277894 0.000618410778676262 0.001607683223593529 -2.71062770691348e-14 7.173653156711257e-05 0.0004602511533985051
       713  3.992760577956628e-17   -6337.417358228674     10.0032831193722    8.663097477104664        49.9812277894 -0.02595693926234646 -0.02545667753545272 -2.704559114119671e-14 7.104129943383275e-05 0.0004531145003131322
Loop time of 0.0249286 on 1 procs for 2 steps with 32 atoms

98.6% CPU use with 1 MPI tasks x no OpenMP threads

Minimization stats:
  Stopping criterion = linesearch alpha is zero
  Energy initial, next-to-last, final = 
     -6337.41735833043  -6337.41735834098  -6337.41735822867
  Force two-norm initial, final = 0.00049138164 0.0023440819
  Force max component initial, final = 0.00013336227 0.0016396534
  Final line search alpha, max atom move = 0.0019788794 3.2446764e-06
  Iterations, force evaluations = 2 11

MPI task timing breakdown:
Section |  min time  |  avg time  |  max time  |%varavg| %total
---------------------------------------------------------------
Pair    | 0.022285   | 0.022285   | 0.022285   |   0.0 | 89.39
Neigh   | 0          | 0          | 0          |   0.0 |  0.00
Comm    | 3.3871e-05 | 3.3871e-05 | 3.3871e-05 |   0.0 |  0.14
Output  | 0          | 0          | 0          |   0.0 |  0.00
Modify  | 0.0019958  | 0.0019958  | 0.0019958  |   0.0 |  8.01
Other   |            | 0.0006141  |            |       |  2.46

Nlocal:             32 ave          32 max          32 min
Histogram: 1 0 0 0 0 0 0 0 0 0
Nghost:            418 ave         418 max         418 min
Histogram: 1 0 0 0 0 0 0 0 0 0
Neighs:           4887 ave        4887 max        4887 min
Histogram: 1 0 0 0 0 0 0 0 0 0

Total # of neighbors = 4887
Ave neighs/atom = 152.71875
Neighbor list builds = 0
Dangerous builds = 0

# Minimize the with fire
  unfix           frb
  min_style       fire
  minimize        0.0 1.0e-3 10000 10000
  Parameters for fire:
    dmax  delaystep dtgrow dtshrink alpha0 alphashrink tmax tmin   integrator   halfstepback   abcfire  
     0.1     20      1.1     0.5     0.25     0.99      10  0.02 eulerimplicit      yes          no     
Per MPI rank memory allocation (min/avg/max) = 12.28 | 12.28 | 12.28 Mbytes
   Step          Temp          PotEng           Lx             Ly             Lz            Pxx            Pyy            Pzz            Fmax          Fnorm     
       713                     0   -6337.417358308558     10.0032831193722    8.663097477104664        49.9812277894 -0.02595455867949144 -0.02545412797749175 -2.704570314651094e-14 7.104217673442603e-05 0.0004531151198764454
       714  3.869969063412001e-17   -6337.417358337359     10.0032831193722    8.663097477104664        49.9812277894 -0.02595363594251367 -0.02545321573347928 -2.704542915044627e-14 7.104246701053474e-05 0.0004531156269779902
Loop time of 0.00494579 on 1 procs for 1 steps with 32 atoms

92.6% CPU use with 1 MPI tasks x no OpenMP threads

Minimization stats:
  Stopping criterion = force tolerance
  Energy initial, next-to-last, final = 
     -6337.41735830856  -6337.41735830856  -6337.41735833736
  Force two-norm initial, final = 0.00045311512 0.00045311563
  Force max component initial, final = 7.1042177e-05 7.1042467e-05
  Final line search alpha, max atom move = 0 0
  Iterations, force evaluations = 1 2

MPI task timing breakdown:
Section |  min time  |  avg time  |  max time  |%varavg| %total
---------------------------------------------------------------
Pair    | 0.0041276  | 0.0041276  | 0.0041276  |   0.0 | 83.46
Neigh   | 0          | 0          | 0          |   0.0 |  0.00
Comm    | 6.638e-06  | 6.638e-06  | 6.638e-06  |   0.0 |  0.13
Output  | 0          | 0          | 0          |   0.0 |  0.00
Modify  | 0.00034043 | 0.00034043 | 0.00034043 |   0.0 |  6.88
Other   |            | 0.0004712  |            |       |  9.53

Nlocal:             32 ave          32 max          32 min
Histogram: 1 0 0 0 0 0 0 0 0 0
Nghost:            418 ave         418 max         418 min
Histogram: 1 0 0 0 0 0 0 0 0 0
Neighs:           4887 ave        4887 max        4887 min
Histogram: 1 0 0 0 0 0 0 0 0 0

Total # of neighbors = 4887
Ave neighs/atom = 152.71875
Neighbor list builds = 0
Dangerous builds = 0

next nr
jump ${simname}.in loopmin
jump ReaxFF.in loopmin

# Minimize the with cg + box/relax
  fix             frb all box/relax tri 0.0 couple none
  min_style       cg
  min_modify      line quadratic
  minimize        0.0 1.0e-3 10000 10000
WARNING: Energy due to 6 extra global DOFs will be included in minimizer energies
 (src/min.cpp:225)
Per MPI rank memory allocation (min/avg/max) = 13.4 | 13.4 | 13.4 Mbytes
   Step          Temp          PotEng           Lx             Ly             Lz            Pxx            Pyy            Pzz            Fmax          Fnorm     
       714  3.869969063412001e-17   -6337.417358333336     10.0032831193722    8.663097477104664        49.9812277894 -0.02595370730320149 -0.02545328839708346 -2.70454748517475e-14 7.104202929941739e-05 0.0004531164240039086
       718  3.869969063412001e-17   -6337.417358299351    10.00328311451764    8.663097474033641        49.9812277894 0.002647303057584586 0.001507924693150183 -2.66298946807388e-14 6.482575991492712e-05 0.0004049413906816591
Loop time of 0.0312324 on 1 procs for 4 steps with 32 atoms

98.3% CPU use with 1 MPI tasks x no OpenMP threads

Minimization stats:
  Stopping criterion = force tolerance
  Energy initial, next-to-last, final = 
     -6337.41735833334  -6337.41735832543  -6337.41735829935
  Force two-norm initial, final = 0.0023437929 0.00045741988
  Force max component initial, final = 0.0016394492 0.0001672254
  Final line search alpha, max atom move = 0.025612103 4.2829941e-06
  Iterations, force evaluations = 4 16

MPI task timing breakdown:
Section |  min time  |  avg time  |  max time  |%varavg| %total
---------------------------------------------------------------
Pair    | 0.028322   | 0.028322   | 0.028322   |   0.0 | 90.68
Neigh   | 0          | 0          | 0          |   0.0 |  0.00
Comm    | 4.131e-05  | 4.131e-05  | 4.131e-05  |   0.0 |  0.13
Output  | 0          | 0          | 0          |   0.0 |  0.00
Modify  | 0.0020723  | 0.0020723  | 0.0020723  |   0.0 |  6.64
Other   |            | 0.0007967  |            |       |  2.55

Nlocal:             32 ave          32 max          32 min
Histogram: 1 0 0 0 0 0 0 0 0 0
Nghost:            418 ave         418 max         418 min
Histogram: 1 0 0 0 0 0 0 0 0 0
Neighs:           4887 ave        4887 max        4887 min
Histogram: 1 0 0 0 0 0 0 0 0 0

Total # of neighbors = 4887
Ave neighs/atom = 152.71875
Neighbor list builds = 0
Dangerous builds = 0

# Minimize the with fire
  unfix           frb
  min_style       fire
  minimize        0.0 1.0e-3 10000 10000
  Parameters for fire:
    dmax  delaystep dtgrow dtshrink alpha0 alphashrink tmax tmin   integrator   halfstepback   abcfire  
     0.1     20      1.1     0.5     0.25     0.99      10  0.02 eulerimplicit      yes          no     
Per MPI rank memory allocation (min/avg/max) = 12.28 | 12.28 | 12.28 Mbytes
   Step          Temp          PotEng           Lx             Ly             Lz            Pxx            Pyy            Pzz            Fmax          Fnorm     
       718                     0   -6337.417358342076    10.00328311451764    8.663097474033641        49.9812277894 0.002648282495623783 0.001508732144976669 -2.662966563640807e-14 6.482585377226568e-05 0.0004049396285573217
       719  3.090807392189679e-17   -6337.417358261308    10.00328311451764    8.663097474033641        49.9812277894 0.002646060066627316 0.001506489742436308 -2.662976416148373e-14 6.482136402652383e-05 0.0004049409561387723
Loop time of 0.0086119 on 1 procs for 1 steps with 32 atoms

95.1% CPU use with 1 MPI tasks x no OpenMP threads

Minimization stats:
  Stopping criterion = force tolerance
  Energy initial, next-to-last, final = 
     -6337.41735834208  -6337.41735834208  -6337.41735826131
  Force two-norm initial, final = 0.00040493963 0.00040494096
  Force max component initial, final = 6.4825854e-05 6.4821364e-05
  Final line search alpha, max atom move = 0 0
  Iterations, force evaluations = 1 2

MPI task timing breakdown:
Section |  min time  |  avg time  |  max time  |%varavg| %total
---------------------------------------------------------------
Pair    | 0.0042898  | 0.0042898  | 0.0042898  |   0.0 | 49.81
Neigh   | 0          | 0          | 0          |   0.0 |  0.00
Comm    | 7.284e-06  | 7.284e-06  | 7.284e-06  |   0.0 |  0.08
Output  | 0          | 0          | 0          |   0.0 |  0.00
Modify  | 0.00051148 | 0.00051148 | 0.00051148 |   0.0 |  5.94
Other   |            | 0.003803   |            |       | 44.16

Nlocal:             32 ave          32 max          32 min
Histogram: 1 0 0 0 0 0 0 0 0 0
Nghost:            418 ave         418 max         418 min
Histogram: 1 0 0 0 0 0 0 0 0 0
Neighs:           4887 ave        4887 max        4887 min
Histogram: 1 0 0 0 0 0 0 0 0 0

Total # of neighbors = 4887
Ave neighs/atom = 152.71875
Neighbor list builds = 0
Dangerous builds = 0

next nr
jump ${simname}.in loopmin
jump ReaxFF.in loopmin

# Minimize the with cg + box/relax
  fix             frb all box/relax tri 0.0 couple none
  min_style       cg
  min_modify      line quadratic
  minimize        0.0 1.0e-3 10000 10000
WARNING: Energy due to 6 extra global DOFs will be included in minimizer energies
 (src/min.cpp:225)
Per MPI rank memory allocation (min/avg/max) = 13.4 | 13.4 | 13.4 Mbytes
   Step          Temp          PotEng           Lx             Ly             Lz            Pxx            Pyy            Pzz            Fmax          Fnorm     
       719  3.090807392189679e-17   -6337.417358300626    10.00328311451764    8.663097474033641        49.9812277894 0.002647032169820462 0.001507505961600516 -2.662966878556715e-14 6.482727705248159e-05 0.0004049380089411317
       720  3.090807392189679e-17   -6337.417358314907    10.00328311697847    8.663097475247344        49.9812277894 -0.01013706836281691 -0.01125263332726876 -2.661492610194147e-14 6.472805253537883e-05 0.0004042149236882903
       722  3.090807392189679e-17   -6337.417358333528    10.00328325109977    8.663097366830431        49.9812277894 -0.04263313153018827 -0.03783574153150451 -2.330406477378464e-14 1.300660038072721e-05 8.669420290938334e-05
Loop time of 0.0296483 on 1 procs for 3 steps with 32 atoms

97.8% CPU use with 1 MPI tasks x no OpenMP threads

Minimization stats:
  Stopping criterion = linesearch alpha is zero
  Energy initial, next-to-last, final = 
     -6337.41735830063  -6337.41735833693  -6337.41735833353
  Force two-norm initial, final = 0.00045740704 0.0036068727
  Force max component initial, final = 0.00016720828 0.0026930586
  Final line search alpha, max atom move = 0.0006607903 1.779547e-06
  Iterations, force evaluations = 3 15

MPI task timing breakdown:
Section |  min time  |  avg time  |  max time  |%varavg| %total
---------------------------------------------------------------
Pair    | 0.026626   | 0.026626   | 0.026626   |   0.0 | 89.81
Neigh   | 0          | 0          | 0          |   0.0 |  0.00
Comm    | 3.7966e-05 | 3.7966e-05 | 3.7966e-05 |   0.0 |  0.13
Output  | 0.00037859 | 0.00037859 | 0.00037859 |   0.0 |  1.28
Modify  | 0.0019814  | 0.0019814  | 0.0019814  |   0.0 |  6.68
Other   |            | 0.0006242  |            |       |  2.11

Nlocal:             32 ave          32 max          32 min
Histogram: 1 0 0 0 0 0 0 0 0 0
Nghost:            418 ave         418 max         418 min
Histogram: 1 0 0 0 0 0 0 0 0 0
Neighs:           4887 ave        4887 max        4887 min
Histogram: 1 0 0 0 0 0 0 0 0 0

Total # of neighbors = 4887
Ave neighs/atom = 152.71875
Neighbor list builds = 0
Dangerous builds = 0

# Minimize the with fire
  unfix           frb
  min_style       fire
  minimize        0.0 1.0e-3 10000 10000
  Parameters for fire:
    dmax  delaystep dtgrow dtshrink alpha0 alphashrink tmax tmin   integrator   halfstepback   abcfire  
     0.1     20      1.1     0.5     0.25     0.99      10  0.02 eulerimplicit      yes          no     
Per MPI rank memory allocation (min/avg/max) = 12.28 | 12.28 | 12.28 Mbytes
   Step          Temp          PotEng           Lx             Ly             Lz            Pxx            Pyy            Pzz            Fmax          Fnorm     
       722                     0   -6337.417358337068    10.00328325109977    8.663097366830431        49.9812277894 -0.04263303533517788 -0.03783564634385369 -2.330397757854725e-14 1.300644244395244e-05 8.669669602657426e-05
       723  1.416660821968302e-18   -6337.417358299232    10.00328325109977    8.663097366830431        49.9812277894  -0.0426332640120026 -0.03783620737352898 -2.330425019280196e-14 1.300614222213281e-05 8.669881992599399e-05
Loop time of 0.00718743 on 1 procs for 1 steps with 32 atoms

95.4% CPU use with 1 MPI tasks x no OpenMP threads

Minimization stats:
  Stopping criterion = force tolerance
  Energy initial, next-to-last, final = 
     -6337.41735833707  -6337.41735833707  -6337.41735829923
  Force two-norm initial, final = 8.6696696e-05 8.669882e-05
  Force max component initial, final = 1.3006442e-05 1.3006142e-05
  Final line search alpha, max atom move = 0 0
  Iterations, force evaluations = 1 2

MPI task timing breakdown:
Section |  min time  |  avg time  |  max time  |%varavg| %total
---------------------------------------------------------------
Pair    | 0.0062521  | 0.0062521  | 0.0062521  |   0.0 | 86.99
Neigh   | 0          | 0          | 0          |   0.0 |  0.00
Comm    | 9.462e-06  | 9.462e-06  | 9.462e-06  |   0.0 |  0.13
Output  | 0          | 0          | 0          |   0.0 |  0.00
Modify  | 0.00046204 | 0.00046204 | 0.00046204 |   0.0 |  6.43
Other   |            | 0.0004639  |            |       |  6.45

Nlocal:             32 ave          32 max          32 min
Histogram: 1 0 0 0 0 0 0 0 0 0
Nghost:            418 ave         418 max         418 min
Histogram: 1 0 0 0 0 0 0 0 0 0
Neighs:           4887 ave        4887 max        4887 min
Histogram: 1 0 0 0 0 0 0 0 0 0

Total # of neighbors = 4887
Ave neighs/atom = 152.71875
Neighbor list builds = 0
Dangerous builds = 0

next nr
jump ${simname}.in loopmin
jump ReaxFF.in loopmin

# Minimize the with cg + box/relax
  fix             frb all box/relax tri 0.0 couple none
  min_style       cg
  min_modify      line quadratic
  minimize        0.0 1.0e-3 10000 10000
WARNING: Energy due to 6 extra global DOFs will be included in minimizer energies
 (src/min.cpp:225)
Per MPI rank memory allocation (min/avg/max) = 13.4 | 13.4 | 13.4 Mbytes
   Step          Temp          PotEng           Lx             Ly             Lz            Pxx            Pyy            Pzz            Fmax          Fnorm     
       723  1.416660821968302e-18   -6337.417358341793    10.00328325109977    8.663097366830431        49.9812277894 -0.04263292989075609  -0.0378355917124634 -2.330410558706149e-14 1.300641355400645e-05 8.669575580482951e-05
       725  1.416660821968302e-18   -6337.417358254185    10.00328320990943    8.663097335172582        49.9812277894    0.214645116406584   0.2191066426979869 -2.329338789701349e-14 1.01650735194192e-05 7.237550139072082e-05
Loop time of 0.0487157 on 1 procs for 2 steps with 32 atoms

98.9% CPU use with 1 MPI tasks x no OpenMP threads

Minimization stats:
  Stopping criterion = linesearch alpha is zero
  Energy initial, next-to-last, final = 
     -6337.41735834179  -6337.41735834043  -6337.41735825419
  Force two-norm initial, final = 0.003606857 0.019375801
  Force max component initial, final = 0.0026930459 0.013840574
  Final line search alpha, max atom move = 2.8222815e-05 3.9061997e-07
  Iterations, force evaluations = 2 24

MPI task timing breakdown:
Section |  min time  |  avg time  |  max time  |%varavg| %total
---------------------------------------------------------------
Pair    | 0.044067   | 0.044067   | 0.044067   |   0.0 | 90.46
Neigh   | 0          | 0          | 0          |   0.0 |  0.00
Comm    | 6.9168e-05 | 6.9168e-05 | 6.9168e-05 |   0.0 |  0.14
Output  | 0          | 0          | 0          |   0.0 |  0.00
Modify  | 0.0036939  | 0.0036939  | 0.0036939  |   0.0 |  7.58
Other   |            | 0.0008859  |            |       |  1.82

Nlocal:             32 ave          32 max          32 min
Histogram: 1 0 0 0 0 0 0 0 0 0
Nghost:            418 ave         418 max         418 min
Histogram: 1 0 0 0 0 0 0 0 0 0
Neighs:           4887 ave        4887 max        4887 min
Histogram: 1 0 0 0 0 0 0 0 0 0

Total # of neighbors = 4887
Ave neighs/atom = 152.71875
Neighbor list builds = 0
Dangerous builds = 0

# Minimize the with fire
  unfix           frb
  min_style       fire
  minimize        0.0 1.0e-3 10000 10000
  Parameters for fire:
    dmax  delaystep dtgrow dtshrink alpha0 alphashrink tmax tmin   integrator   halfstepback   abcfire  
     0.1     20      1.1     0.5     0.25     0.99      10  0.02 eulerimplicit      yes          no     
Per MPI rank memory allocation (min/avg/max) = 12.28 | 12.28 | 12.28 Mbytes
   Step          Temp          PotEng           Lx             Ly             Lz            Pxx            Pyy            Pzz            Fmax          Fnorm     
       725                     0   -6337.417358304762    10.00328320990943    8.663097335172582        49.9812277894   0.2146469727323367   0.2191084725984535 -2.329343090472958e-14 1.015969769527225e-05 7.237497822059744e-05
       726  9.873195330440576e-19   -6337.417358324446    10.00328320990943    8.663097335172582        49.9812277894    0.214647942839108   0.2191091585181616 -2.329345905694167e-14 1.016403862244553e-05 7.237479546541449e-05
Loop time of 0.00517282 on 1 procs for 1 steps with 32 atoms

90.8% CPU use with 1 MPI tasks x no OpenMP threads

Minimization stats:
  Stopping criterion = force tolerance
  Energy initial, next-to-last, final = 
     -6337.41735830476  -6337.41735830476  -6337.41735832445
  Force two-norm initial, final = 7.2374978e-05 7.2374795e-05
  Force max component initial, final = 1.0159698e-05 1.0164039e-05
  Final line search alpha, max atom move = 0 0
  Iterations, force evaluations = 1 2

MPI task timing breakdown:
Section |  min time  |  avg time  |  max time  |%varavg| %total
---------------------------------------------------------------
Pair    | 0.0041963  | 0.0041963  | 0.0041963  |   0.0 | 81.12
Neigh   | 0          | 0          | 0          |   0.0 |  0.00
Comm    | 7.229e-06  | 7.229e-06  | 7.229e-06  |   0.0 |  0.14
Output  | 0          | 0          | 0          |   0.0 |  0.00
Modify  | 0.0003683  | 0.0003683  | 0.0003683  |   0.0 |  7.12
Other   |            | 0.000601   |            |       | 11.62

Nlocal:             32 ave          32 max          32 min
Histogram: 1 0 0 0 0 0 0 0 0 0
Nghost:            418 ave         418 max         418 min
Histogram: 1 0 0 0 0 0 0 0 0 0
Neighs:           4887 ave        4887 max        4887 min
Histogram: 1 0 0 0 0 0 0 0 0 0

Total # of neighbors = 4887
Ave neighs/atom = 152.71875
Neighbor list builds = 0
Dangerous builds = 0

next nr
jump ${simname}.in loopmin
jump ReaxFF.in loopmin

# Minimize the with cg + box/relax
  fix             frb all box/relax tri 0.0 couple none
  min_style       cg
  min_modify      line quadratic
  minimize        0.0 1.0e-3 10000 10000
WARNING: Energy due to 6 extra global DOFs will be included in minimizer energies
 (src/min.cpp:225)
Per MPI rank memory allocation (min/avg/max) = 13.4 | 13.4 | 13.4 Mbytes
   Step          Temp          PotEng           Lx             Ly             Lz            Pxx            Pyy            Pzz            Fmax          Fnorm     
       726  9.873195330440576e-19   -6337.417358289009    10.00328320990943    8.663097335172582        49.9812277894   0.2146465150785106   0.2191079568789435 -2.329342778676522e-14 1.016316482876922e-05 7.237678786410135e-05
       728  9.873195330440576e-19   -6337.417358328194    10.00328323340736    8.663097355945363        49.9812277894  0.05762989012466561   0.0620559562478756 -2.329244031655386e-14 1.151086221140574e-05 7.796864858205113e-05
Loop time of 0.0349802 on 1 procs for 2 steps with 32 atoms

98.6% CPU use with 1 MPI tasks x no OpenMP threads

Minimization stats:
  Stopping criterion = linesearch alpha is zero
  Energy initial, next-to-last, final = 
     -6337.41735828901  -6337.41735832258  -6337.41735832819
  Force two-norm initial, final = 0.019375922 0.0053525
  Force max component initial, final = 0.013840657 0.0039199637
  Final line search alpha, max atom move = 0.00039860011 1.5624979e-06
  Iterations, force evaluations = 2 17

MPI task timing breakdown:
Section |  min time  |  avg time  |  max time  |%varavg| %total
---------------------------------------------------------------
Pair    | 0.031111   | 0.031111   | 0.031111   |   0.0 | 88.94
Neigh   | 0          | 0          | 0          |   0.0 |  0.00
Comm    | 4.4424e-05 | 4.4424e-05 | 4.4424e-05 |   0.0 |  0.13
Output  | 0          | 0          | 0          |   0.0 |  0.00
Modify  | 0.0030321  | 0.0030321  | 0.0030321  |   0.0 |  8.67
Other   |            | 0.0007923  |            |       |  2.26

Nlocal:             32 ave          32 max          32 min
Histogram: 1 0 0 0 0 0 0 0 0 0
Nghost:            418 ave         418 max         418 min
Histogram: 1 0 0 0 0 0 0 0 0 0
Neighs:           4887 ave        4887 max        4887 min
Histogram: 1 0 0 0 0 0 0 0 0 0

Total # of neighbors = 4887
Ave neighs/atom = 152.71875
Neighbor list builds = 0
Dangerous builds = 0

# Minimize the with fire
  unfix           frb
  min_style       fire
  minimize        0.0 1.0e-3 10000 10000
  Parameters for fire:
    dmax  delaystep dtgrow dtshrink alpha0 alphashrink tmax tmin   integrator   halfstepback   abcfire  
     0.1     20      1.1     0.5     0.25     0.99      10  0.02 eulerimplicit      yes          no     
Per MPI rank memory allocation (min/avg/max) = 12.28 | 12.28 | 12.28 Mbytes
   Step          Temp          PotEng           Lx             Ly             Lz            Pxx            Pyy            Pzz            Fmax          Fnorm     
       728                     0   -6337.417358298711    10.00328323340736    8.663097355945363        49.9812277894  0.05762955512087135  0.06205540115733823 -2.329245899678897e-14 1.151333478385808e-05 7.797083209364983e-05
       729  1.145868898639065e-18   -6337.417358309608    10.00328323340736    8.663097355945363        49.9812277894  0.05762922872610361  0.06205533483686718 -2.329251768947033e-14 1.151076602007306e-05 7.796857036385427e-05
Loop time of 0.00491309 on 1 procs for 1 steps with 32 atoms

93.4% CPU use with 1 MPI tasks x no OpenMP threads

Minimization stats:
  Stopping criterion = force tolerance
  Energy initial, next-to-last, final = 
     -6337.41735829871  -6337.41735829871  -6337.41735830961
  Force two-norm initial, final = 7.7970832e-05 7.796857e-05
  Force max component initial, final = 1.1513335e-05 1.1510766e-05
  Final line search alpha, max atom move = 0 0
  Iterations, force evaluations = 1 2

MPI task timing breakdown:
Section |  min time  |  avg time  |  max time  |%varavg| %total
---------------------------------------------------------------
Pair    | 0.004139   | 0.004139   | 0.004139   |   0.0 | 84.24
Neigh   | 0          | 0          | 0          |   0.0 |  0.00
Comm    | 5.788e-06  | 5.788e-06  | 5.788e-06  |   0.0 |  0.12
Output  | 0          | 0          | 0          |   0.0 |  0.00
Modify  | 0.00033706 | 0.00033706 | 0.00033706 |   0.0 |  6.86
Other   |            | 0.0004312  |            |       |  8.78

Nlocal:             32 ave          32 max          32 min
Histogram: 1 0 0 0 0 0 0 0 0 0
Nghost:            418 ave         418 max         418 min
Histogram: 1 0 0 0 0 0 0 0 0 0
Neighs:           4887 ave        4887 max        4887 min
Histogram: 1 0 0 0 0 0 0 0 0 0

Total # of neighbors = 4887
Ave neighs/atom = 152.71875
Neighbor list builds = 0
Dangerous builds = 0

next nr
jump ${simname}.in loopmin
jump ReaxFF.in loopmin

# Minimize the with cg + box/relax
  fix             frb all box/relax tri 0.0 couple none
  min_style       cg
  min_modify      line quadratic
  minimize        0.0 1.0e-3 10000 10000
WARNING: Energy due to 6 extra global DOFs will be included in minimizer energies
 (src/min.cpp:225)
Per MPI rank memory allocation (min/avg/max) = 13.4 | 13.4 | 13.4 Mbytes
   Step          Temp          PotEng           Lx             Ly             Lz            Pxx            Pyy            Pzz            Fmax          Fnorm     
       729  1.145868898639065e-18   -6337.417358303051    10.00328323340736    8.663097355945363        49.9812277894  0.05762961759227143  0.06205580146620233 -2.329234561595911e-14 1.15094240494551e-05 7.797533204154115e-05
       730  1.145868898639065e-18   -6337.417358318705    10.00328324231075    8.663097364248125        49.9812277894 -0.003495931710529782 0.0008806287252515309 -2.329076393962429e-14 1.197957105988912e-05 7.978161428901915e-05
Loop time of 0.00766483 on 1 procs for 1 steps with 32 atoms

95.6% CPU use with 1 MPI tasks x no OpenMP threads

Minimization stats:
  Stopping criterion = force tolerance
  Energy initial, next-to-last, final = 
     -6337.41735830305  -6337.41735830305   -6337.4173583187
  Force two-norm initial, final = 0.0053524813 0.00029459575
  Force max component initial, final = 0.0039199539 0.00022083175
  Final line search alpha, max atom move = 0.025510504 5.6335292e-06
  Iterations, force evaluations = 1 2

MPI task timing breakdown:
Section |  min time  |  avg time  |  max time  |%varavg| %total
---------------------------------------------------------------
Pair    | 0.0067449  | 0.0067449  | 0.0067449  |   0.0 | 88.00
Neigh   | 0          | 0          | 0          |   0.0 |  0.00
Comm    | 9.23e-06   | 9.23e-06   | 9.23e-06   |   0.0 |  0.12
Output  | 0          | 0          | 0          |   0.0 |  0.00
Modify  | 0.00043318 | 0.00043318 | 0.00043318 |   0.0 |  5.65
Other   |            | 0.0004775  |            |       |  6.23

Nlocal:             32 ave          32 max          32 min
Histogram: 1 0 0 0 0 0 0 0 0 0
Nghost:            418 ave         418 max         418 min
Histogram: 1 0 0 0 0 0 0 0 0 0
Neighs:           4887 ave        4887 max        4887 min
Histogram: 1 0 0 0 0 0 0 0 0 0

Total # of neighbors = 4887
Ave neighs/atom = 152.71875
Neighbor list builds = 0
Dangerous builds = 0

# Minimize the with fire
  unfix           frb
  min_style       fire
  minimize        0.0 1.0e-3 10000 10000
  Parameters for fire:
    dmax  delaystep dtgrow dtshrink alpha0 alphashrink tmax tmin   integrator   halfstepback   abcfire  
     0.1     20      1.1     0.5     0.25     0.99      10  0.02 eulerimplicit      yes          no     
Per MPI rank memory allocation (min/avg/max) = 12.28 | 12.28 | 12.28 Mbytes
   Step          Temp          PotEng           Lx             Ly             Lz            Pxx            Pyy            Pzz            Fmax          Fnorm     
       730                     0   -6337.417358330745    10.00328324231075    8.663097364248125        49.9812277894 -0.003495576926180113 0.0008809681635627391 -2.329085827672801e-14 1.197752087200854e-05 7.978089087934497e-05
       731  1.199800562416687e-18   -6337.417358305611    10.00328324231075    8.663097364248125        49.9812277894 -0.003496190629511473 0.0008803205590655583 -2.329082690041328e-14 1.197626152832365e-05 7.978333163779931e-05
Loop time of 0.00543066 on 1 procs for 1 steps with 32 atoms

92.8% CPU use with 1 MPI tasks x no OpenMP threads

Minimization stats:
  Stopping criterion = force tolerance
  Energy initial, next-to-last, final = 
     -6337.41735833074  -6337.41735833074  -6337.41735830561
  Force two-norm initial, final = 7.9780891e-05 7.9783332e-05
  Force max component initial, final = 1.1977521e-05 1.1976262e-05
  Final line search alpha, max atom move = 0 0
  Iterations, force evaluations = 1 2

MPI task timing breakdown:
Section |  min time  |  avg time  |  max time  |%varavg| %total
---------------------------------------------------------------
Pair    | 0.0043332  | 0.0043332  | 0.0043332  |   0.0 | 79.79
Neigh   | 0          | 0          | 0          |   0.0 |  0.00
Comm    | 1.8731e-05 | 1.8731e-05 | 1.8731e-05 |   0.0 |  0.34
Output  | 0          | 0          | 0          |   0.0 |  0.00
Modify  | 0.00035104 | 0.00035104 | 0.00035104 |   0.0 |  6.46
Other   |            | 0.0007277  |            |       | 13.40

Nlocal:             32 ave          32 max          32 min
Histogram: 1 0 0 0 0 0 0 0 0 0
Nghost:            418 ave         418 max         418 min
Histogram: 1 0 0 0 0 0 0 0 0 0
Neighs:           4887 ave        4887 max        4887 min
Histogram: 1 0 0 0 0 0 0 0 0 0

Total # of neighbors = 4887
Ave neighs/atom = 152.71875
Neighbor list builds = 0
Dangerous builds = 0

next nr
jump ${simname}.in loopmin
jump ReaxFF.in loopmin

# Minimize the with cg + box/relax
  fix             frb all box/relax tri 0.0 couple none
  min_style       cg
  min_modify      line quadratic
  minimize        0.0 1.0e-3 10000 10000
WARNING: Energy due to 6 extra global DOFs will be included in minimizer energies
 (src/min.cpp:225)
Per MPI rank memory allocation (min/avg/max) = 13.4 | 13.4 | 13.4 Mbytes
   Step          Temp          PotEng           Lx             Ly             Lz            Pxx            Pyy            Pzz            Fmax          Fnorm     
       731  1.199800562416687e-18   -6337.417358128293    10.00328324231075    8.663097364248125        49.9812277894 -0.003501539660338169 0.0008747896531591502 -2.329068989620113e-14 1.197515349729561e-05  7.9779249791674e-05
       732  1.199800562416687e-18   -6337.417358333415    10.00328323917784    8.663097364925958        49.9812277894 0.004418897460345413 0.008511580780242731 -2.328097619788189e-14 1.14462141476146e-05 7.585224701088765e-05
Loop time of 0.00515094 on 1 procs for 1 steps with 32 atoms

44.5% CPU use with 1 MPI tasks x no OpenMP threads

Minimization stats:
  Stopping criterion = force tolerance
  Energy initial, next-to-last, final = 
     -6337.41735812829  -6337.41735812829  -6337.41735833341
  Force two-norm initial, final = 0.00029479415 0.00063035347
  Force max component initial, final = 0.00022118599 0.00053766132
  Final line search alpha, max atom move = 0.45210819 0.00024308109
  Iterations, force evaluations = 1 2

MPI task timing breakdown:
Section |  min time  |  avg time  |  max time  |%varavg| %total
---------------------------------------------------------------
Pair    | 0.0043052  | 0.0043052  | 0.0043052  |   0.0 | 83.58
Neigh   | 0          | 0          | 0          |   0.0 |  0.00
Comm    | 7.701e-06  | 7.701e-06  | 7.701e-06  |   0.0 |  0.15
Output  | 0          | 0          | 0          |   0.0 |  0.00
Modify  | 0.0003718  | 0.0003718  | 0.0003718  |   0.0 |  7.22
Other   |            | 0.0004662  |            |       |  9.05

Nlocal:             32 ave          32 max          32 min
Histogram: 1 0 0 0 0 0 0 0 0 0
Nghost:            418 ave         418 max         418 min
Histogram: 1 0 0 0 0 0 0 0 0 0
Neighs:           4887 ave        4887 max        4887 min
Histogram: 1 0 0 0 0 0 0 0 0 0

Total # of neighbors = 4887
Ave neighs/atom = 152.71875
Neighbor list builds = 0
Dangerous builds = 0

# Minimize the with fire
  unfix           frb
  min_style       fire
  minimize        0.0 1.0e-3 10000 10000
  Parameters for fire:
    dmax  delaystep dtgrow dtshrink alpha0 alphashrink tmax tmin   integrator   halfstepback   abcfire  
     0.1     20      1.1     0.5     0.25     0.99      10  0.02 eulerimplicit      yes          no     
Per MPI rank memory allocation (min/avg/max) = 12.28 | 12.28 | 12.28 Mbytes
   Step          Temp          PotEng           Lx             Ly             Lz            Pxx            Pyy            Pzz            Fmax          Fnorm     
       732                     0   -6337.417358253828    10.00328323917784    8.663097364925958        49.9812277894 0.004416839739531771 0.008509640216993367 -2.328125598570505e-14 1.144173899514378e-05 7.585687652799057e-05
       733  1.084441581126877e-18    -6337.41735828835    10.00328323917784    8.663097364925958        49.9812277894 0.004417524346734467 0.008510172579765357 -2.328104726315961e-14 1.144625916021935e-05 7.585148632677008e-05
Loop time of 0.00632598 on 1 procs for 1 steps with 32 atoms

63.9% CPU use with 1 MPI tasks x no OpenMP threads

Minimization stats:
  Stopping criterion = force tolerance
  Energy initial, next-to-last, final = 
     -6337.41735825383  -6337.41735825383  -6337.41735828835
  Force two-norm initial, final = 7.5856877e-05 7.5851486e-05
  Force max component initial, final = 1.1441739e-05 1.1446259e-05
  Final line search alpha, max atom move = 0 0
  Iterations, force evaluations = 1 2

MPI task timing breakdown:
Section |  min time  |  avg time  |  max time  |%varavg| %total
---------------------------------------------------------------
Pair    | 0.005324   | 0.005324   | 0.005324   |   0.0 | 84.16
Neigh   | 0          | 0          | 0          |   0.0 |  0.00
Comm    | 8.596e-06  | 8.596e-06  | 8.596e-06  |   0.0 |  0.14
Output  | 0          | 0          | 0          |   0.0 |  0.00
Modify  | 0.00042548 | 0.00042548 | 0.00042548 |   0.0 |  6.73
Other   |            | 0.0005679  |            |       |  8.98

Nlocal:             32 ave          32 max          32 min
Histogram: 1 0 0 0 0 0 0 0 0 0
Nghost:            418 ave         418 max         418 min
Histogram: 1 0 0 0 0 0 0 0 0 0
Neighs:           4887 ave        4887 max        4887 min
Histogram: 1 0 0 0 0 0 0 0 0 0

Total # of neighbors = 4887
Ave neighs/atom = 152.71875
Neighbor list builds = 0
Dangerous builds = 0

next nr
jump ${simname}.in loopmin
jump ReaxFF.in loopmin

# Minimize the with cg + box/relax
  fix             frb all box/relax tri 0.0 couple none
  min_style       cg
  min_modify      line quadratic
  minimize        0.0 1.0e-3 10000 10000
WARNING: Energy due to 6 extra global DOFs will be included in minimizer energies
 (src/min.cpp:225)
Per MPI rank memory allocation (min/avg/max) = 13.4 | 13.4 | 13.4 Mbytes
   Step          Temp          PotEng           Lx             Ly             Lz            Pxx            Pyy            Pzz            Fmax          Fnorm     
       733  1.084441581126877e-18   -6337.417358336297    10.00328323917784    8.663097364925958        49.9812277894   0.0044189809554363 0.008511654860819685 -2.328123177043511e-14 1.144611230921577e-05 7.585230061296039e-05
       734  1.084441581126877e-18   -6337.417358314143    10.00328323998459    8.663097366271698        49.9812277894 -0.00336162637346611 0.0006768001659150471 -2.327903507870646e-14 1.142789384261933e-05 7.547452014846047e-05
Loop time of 0.00743015 on 1 procs for 1 steps with 32 atoms

93.1% CPU use with 1 MPI tasks x no OpenMP threads

Minimization stats:
  Stopping criterion = force tolerance
  Energy initial, next-to-last, final = 
      -6337.4173583363   -6337.4173583363  -6337.41735831414
  Force two-norm initial, final = 0.00063035974 0.00027772395
  Force max component initial, final = 0.000537666 0.00021234792
  Final line search alpha, max atom move = 0.18598907 3.9494392e-05
  Iterations, force evaluations = 1 2

MPI task timing breakdown:
Section |  min time  |  avg time  |  max time  |%varavg| %total
---------------------------------------------------------------
Pair    | 0.0063721  | 0.0063721  | 0.0063721  |   0.0 | 85.76
Neigh   | 0          | 0          | 0          |   0.0 |  0.00
Comm    | 8.29e-06   | 8.29e-06   | 8.29e-06   |   0.0 |  0.11
Output  | 0          | 0          | 0          |   0.0 |  0.00
Modify  | 0.00039082 | 0.00039082 | 0.00039082 |   0.0 |  5.26
Other   |            | 0.0006589  |            |       |  8.87

Nlocal:             32 ave          32 max          32 min
Histogram: 1 0 0 0 0 0 0 0 0 0
Nghost:            418 ave         418 max         418 min
Histogram: 1 0 0 0 0 0 0 0 0 0
Neighs:           4887 ave        4887 max        4887 min
Histogram: 1 0 0 0 0 0 0 0 0 0

Total # of neighbors = 4887
Ave neighs/atom = 152.71875
Neighbor list builds = 0
Dangerous builds = 0

# Minimize the with fire
  unfix           frb
  min_style       fire
  minimize        0.0 1.0e-3 10000 10000
  Parameters for fire:
    dmax  delaystep dtgrow dtshrink alpha0 alphashrink tmax tmin   integrator   halfstepback   abcfire  
     0.1     20      1.1     0.5     0.25     0.99      10  0.02 eulerimplicit      yes          no     
Per MPI rank memory allocation (min/avg/max) = 12.28 | 12.28 | 12.28 Mbytes
   Step          Temp          PotEng           Lx             Ly             Lz            Pxx            Pyy            Pzz            Fmax          Fnorm     
       734                     0   -6337.417358296746    10.00328323998459    8.663097366271698        49.9812277894 -0.003361525691335219 0.0006766584484323545 -2.327908114520487e-14 1.142850355639879e-05 7.54754539321909e-05
       735  1.073727312060737e-18   -6337.417358333474    10.00328323998459    8.663097366271698        49.9812277894 -0.003361102159554538 0.0006773810377387144 -2.327906704099041e-14 1.142746064250466e-05 7.547478353973174e-05
Loop time of 0.0051848 on 1 procs for 1 steps with 32 atoms

94.1% CPU use with 1 MPI tasks x no OpenMP threads

Minimization stats:
  Stopping criterion = force tolerance
  Energy initial, next-to-last, final = 
     -6337.41735829675  -6337.41735829675  -6337.41735833347
  Force two-norm initial, final = 7.5475454e-05 7.5474784e-05
  Force max component initial, final = 1.1428504e-05 1.1427461e-05
  Final line search alpha, max atom move = 0 0
  Iterations, force evaluations = 1 2

MPI task timing breakdown:
Section |  min time  |  avg time  |  max time  |%varavg| %total
---------------------------------------------------------------
Pair    | 0.0042725  | 0.0042725  | 0.0042725  |   0.0 | 82.40
Neigh   | 0          | 0          | 0          |   0.0 |  0.00
Comm    | 6.887e-06  | 6.887e-06  | 6.887e-06  |   0.0 |  0.13
Output  | 0          | 0          | 0          |   0.0 |  0.00
Modify  | 0.00046836 | 0.00046836 | 0.00046836 |   0.0 |  9.03
Other   |            | 0.0004371  |            |       |  8.43

Nlocal:             32 ave          32 max          32 min
Histogram: 1 0 0 0 0 0 0 0 0 0
Nghost:            418 ave         418 max         418 min
Histogram: 1 0 0 0 0 0 0 0 0 0
Neighs:           4887 ave        4887 max        4887 min
Histogram: 1 0 0 0 0 0 0 0 0 0

Total # of neighbors = 4887
Ave neighs/atom = 152.71875
Neighbor list builds = 0
Dangerous builds = 0

next nr
jump ${simname}.in loopmin
jump ReaxFF.in loopmin

# Minimize the with cg + box/relax
  fix             frb all box/relax tri 0.0 couple none
  min_style       cg
  min_modify      line quadratic
  minimize        0.0 1.0e-3 10000 10000
WARNING: Energy due to 6 extra global DOFs will be included in minimizer energies
 (src/min.cpp:225)
Per MPI rank memory allocation (min/avg/max) = 13.4 | 13.4 | 13.4 Mbytes
   Step          Temp          PotEng           Lx             Ly             Lz            Pxx            Pyy            Pzz            Fmax          Fnorm     
       735  1.073727312060737e-18   -6337.417358324594    10.00328323998459    8.663097366271698        49.9812277894 -0.003361010384935393 0.000677319873153278 -2.327924871613287e-14 1.142618705213261e-05 7.547491211362123e-05
       736  1.073727312060737e-18   -6337.417358320039    10.00328323740397    8.663097366722077        49.9812277894 0.003565786053246445 0.007379287696242078 -2.327057299417792e-14 1.099695378636856e-05 7.232774404366326e-05
Loop time of 0.00505033 on 1 procs for 1 steps with 32 atoms

71.0% CPU use with 1 MPI tasks x no OpenMP threads

Minimization stats:
  Stopping criterion = force tolerance
  Energy initial, next-to-last, final = 
     -6337.41735832459  -6337.41735832459  -6337.41735832004
  Force two-norm initial, final = 0.00027770383 0.00054294291
  Force max component initial, final = 0.00021230901 0.0004661364
  Final line search alpha, max atom move = 0.47101157 0.00021955564
  Iterations, force evaluations = 1 2

MPI task timing breakdown:
Section |  min time  |  avg time  |  max time  |%varavg| %total
---------------------------------------------------------------
Pair    | 0.0042088  | 0.0042088  | 0.0042088  |   0.0 | 83.34
Neigh   | 0          | 0          | 0          |   0.0 |  0.00
Comm    | 6.916e-06  | 6.916e-06  | 6.916e-06  |   0.0 |  0.14
Output  | 0          | 0          | 0          |   0.0 |  0.00
Modify  | 0.00034228 | 0.00034228 | 0.00034228 |   0.0 |  6.78
Other   |            | 0.0004924  |            |       |  9.75

Nlocal:             32 ave          32 max          32 min
Histogram: 1 0 0 0 0 0 0 0 0 0
Nghost:            418 ave         418 max         418 min
Histogram: 1 0 0 0 0 0 0 0 0 0
Neighs:           4887 ave        4887 max        4887 min
Histogram: 1 0 0 0 0 0 0 0 0 0

Total # of neighbors = 4887
Ave neighs/atom = 152.71875
Neighbor list builds = 0
Dangerous builds = 0

# Minimize the with fire
  unfix           frb
  min_style       fire
  minimize        0.0 1.0e-3 10000 10000
  Parameters for fire:
    dmax  delaystep dtgrow dtshrink alpha0 alphashrink tmax tmin   integrator   halfstepback   abcfire  
[...]

MPI task timing breakdown:
Section |  min time  |  avg time  |  max time  |%varavg| %total
---------------------------------------------------------------
Pair    | 0.0068463  | 0.0068463  | 0.0068463  |   0.0 | 83.94
Neigh   | 0          | 0          | 0          |   0.0 |  0.00
Comm    | 1.7949e-05 | 1.7949e-05 | 1.7949e-05 |   0.0 |  0.22
Output  | 0          | 0          | 0          |   0.0 |  0.00
Modify  | 0.00061477 | 0.00061477 | 0.00061477 |   0.0 |  7.54
Other   |            | 0.0006776  |            |       |  8.31

Nlocal:             32 ave          32 max          32 min
Histogram: 1 0 0 0 0 0 0 0 0 0
Nghost:            418 ave         418 max         418 min
Histogram: 1 0 0 0 0 0 0 0 0 0
Neighs:           4887 ave        4887 max        4887 min
Histogram: 1 0 0 0 0 0 0 0 0 0

Total # of neighbors = 4887
Ave neighs/atom = 152.71875
Neighbor list builds = 0
Dangerous builds = 0

# Minimize the with fire
  unfix           frb
  min_style       fire
  minimize        0.0 1.0e-3 10000 10000
  Parameters for fire:
    dmax  delaystep dtgrow dtshrink alpha0 alphashrink tmax tmin   integrator   halfstepback   abcfire  
     0.1     20      1.1     0.5     0.25     0.99      10  0.02 eulerimplicit      yes          no     
Per MPI rank memory allocation (min/avg/max) = 12.28 | 12.28 | 12.28 Mbytes
   Step          Temp          PotEng           Lx             Ly             Lz            Pxx            Pyy            Pzz            Fmax          Fnorm     
       904                     0   -6337.417358320187    10.00328322052025    8.663097382630843        49.9812277894 -6.22354531403638e-05 0.001177573099523532 -2.310754407586607e-14 6.623721700238505e-06 3.881504554069274e-05
       905  2.839890763885384e-19   -6337.417358319591    10.00328322052025    8.663097382630843        49.9812277894 -6.233431584459899e-05 0.001177506271127116 -2.310746443603812e-14 6.620848640115362e-06 3.881554343057182e-05
Loop time of 0.005202 on 1 procs for 1 steps with 32 atoms

94.9% CPU use with 1 MPI tasks x no OpenMP threads

Minimization stats:
  Stopping criterion = force tolerance
  Energy initial, next-to-last, final = 
     -6337.41735832019  -6337.41735832019  -6337.41735831959
  Force two-norm initial, final = 3.8815046e-05 3.8815543e-05
  Force max component initial, final = 6.6237217e-06 6.6208486e-06
  Final line search alpha, max atom move = 0 0
  Iterations, force evaluations = 1 2

MPI task timing breakdown:
Section |  min time  |  avg time  |  max time  |%varavg| %total
---------------------------------------------------------------
Pair    | 0.0043357  | 0.0043357  | 0.0043357  |   0.0 | 83.35
Neigh   | 0          | 0          | 0          |   0.0 |  0.00
Comm    | 7.326e-06  | 7.326e-06  | 7.326e-06  |   0.0 |  0.14
Output  | 0          | 0          | 0          |   0.0 |  0.00
Modify  | 0.0004879  | 0.0004879  | 0.0004879  |   0.0 |  9.38
Other   |            | 0.000371   |            |       |  7.13

Nlocal:             32 ave          32 max          32 min
Histogram: 1 0 0 0 0 0 0 0 0 0
Nghost:            418 ave         418 max         418 min
Histogram: 1 0 0 0 0 0 0 0 0 0
Neighs:           4887 ave        4887 max        4887 min
Histogram: 1 0 0 0 0 0 0 0 0 0

Total # of neighbors = 4887
Ave neighs/atom = 152.71875
Neighbor list builds = 0
Dangerous builds = 0

next nr
jump ${simname}.in loopmin
jump ReaxFF.in loopmin

# Minimize the with cg + box/relax
  fix             frb all box/relax tri 0.0 couple none
  min_style       cg
  min_modify      line quadratic
  minimize        0.0 1.0e-3 10000 10000
WARNING: Energy due to 6 extra global DOFs will be included in minimizer energies
 (src/min.cpp:225)
Per MPI rank memory allocation (min/avg/max) = 13.4 | 13.4 | 13.4 Mbytes
   Step          Temp          PotEng           Lx             Ly             Lz            Pxx            Pyy            Pzz            Fmax          Fnorm     
       905  2.839890763885384e-19   -6337.417358317457    10.00328322052025    8.663097382630843        49.9812277894 -6.253892302904285e-05 0.001177390255296603 -2.310762810608275e-14 6.624252319009649e-06 3.881556211793811e-05
       906  2.839890763885384e-19   -6337.417358316313    10.00328322048427    8.663097383217371        49.9812277894 -0.002156758648490459 -0.000969676503685292 -2.310113893308938e-14 6.54483455853061e-06 3.818751463508512e-05
Loop time of 0.00673319 on 1 procs for 1 steps with 32 atoms

94.5% CPU use with 1 MPI tasks x no OpenMP threads

Minimization stats:
  Stopping criterion = force tolerance
  Energy initial, next-to-last, final = 
     -6337.41735831746  -6337.41735831746  -6337.41735831631
  Force two-norm initial, final = 9.8006532e-05 0.00016175492
  Force max component initial, final = 7.4373635e-05 0.00013623858
  Final line search alpha, max atom move = 1 0.00013623858
  Iterations, force evaluations = 1 2

MPI task timing breakdown:
Section |  min time  |  avg time  |  max time  |%varavg| %total
---------------------------------------------------------------
Pair    | 0.0056143  | 0.0056143  | 0.0056143  |   0.0 | 83.38
Neigh   | 0          | 0          | 0          |   0.0 |  0.00
Comm    | 1.2021e-05 | 1.2021e-05 | 1.2021e-05 |   0.0 |  0.18
Output  | 0          | 0          | 0          |   0.0 |  0.00
Modify  | 0.00057777 | 0.00057777 | 0.00057777 |   0.0 |  8.58
Other   |            | 0.0005291  |            |       |  7.86

Nlocal:             32 ave          32 max          32 min
Histogram: 1 0 0 0 0 0 0 0 0 0
Nghost:            418 ave         418 max         418 min
Histogram: 1 0 0 0 0 0 0 0 0 0
Neighs:           4887 ave        4887 max        4887 min
Histogram: 1 0 0 0 0 0 0 0 0 0

Total # of neighbors = 4887
Ave neighs/atom = 152.71875
Neighbor list builds = 0
Dangerous builds = 0

# Minimize the with fire
  unfix           frb
  min_style       fire
  minimize        0.0 1.0e-3 10000 10000
  Parameters for fire:
    dmax  delaystep dtgrow dtshrink alpha0 alphashrink tmax tmin   integrator   halfstepback   abcfire  
     0.1     20      1.1     0.5     0.25     0.99      10  0.02 eulerimplicit      yes          no     
Per MPI rank memory allocation (min/avg/max) = 12.28 | 12.28 | 12.28 Mbytes
   Step          Temp          PotEng           Lx             Ly             Lz            Pxx            Pyy            Pzz            Fmax          Fnorm     
       906                     0   -6337.417358326806    10.00328322048427    8.663097383217371        49.9812277894 -0.002156353826509071 -0.0009692474038890405 -2.310118170073407e-14 6.544891361037752e-06 3.818790442689448e-05
       907  2.749665914753727e-19   -6337.417358334278    10.00328322048427    8.663097383217371        49.9812277894 -0.002156512189565154 -0.0009693225862829306 -2.310107745843929e-14 6.545047498113243e-06 3.818639261649523e-05
Loop time of 0.00525135 on 1 procs for 1 steps with 32 atoms

89.5% CPU use with 1 MPI tasks x no OpenMP threads

Minimization stats:
  Stopping criterion = force tolerance
  Energy initial, next-to-last, final = 
     -6337.41735832681  -6337.41735832681  -6337.41735833428
  Force two-norm initial, final = 3.8187904e-05 3.8186393e-05
  Force max component initial, final = 6.5448914e-06 6.5450475e-06
  Final line search alpha, max atom move = 0 0
  Iterations, force evaluations = 1 2

MPI task timing breakdown:
Section |  min time  |  avg time  |  max time  |%varavg| %total
---------------------------------------------------------------
Pair    | 0.0042744  | 0.0042744  | 0.0042744  |   0.0 | 81.40
Neigh   | 0          | 0          | 0          |   0.0 |  0.00
Comm    | 6.931e-06  | 6.931e-06  | 6.931e-06  |   0.0 |  0.13
Output  | 0          | 0          | 0          |   0.0 |  0.00
Modify  | 0.00032193 | 0.00032193 | 0.00032193 |   0.0 |  6.13
Other   |            | 0.0006481  |            |       | 12.34

Nlocal:             32 ave          32 max          32 min
Histogram: 1 0 0 0 0 0 0 0 0 0
Nghost:            418 ave         418 max         418 min
Histogram: 1 0 0 0 0 0 0 0 0 0
Neighs:           4887 ave        4887 max        4887 min
Histogram: 1 0 0 0 0 0 0 0 0 0

Total # of neighbors = 4887
Ave neighs/atom = 152.71875
Neighbor list builds = 0
Dangerous builds = 0

next nr
jump ${simname}.in loopmin
jump ReaxFF.in loopmin

# Minimize the with cg + box/relax
  fix             frb all box/relax tri 0.0 couple none
  min_style       cg
  min_modify      line quadratic
  minimize        0.0 1.0e-3 10000 10000
WARNING: Energy due to 6 extra global DOFs will be included in minimizer energies
 (src/min.cpp:225)
Per MPI rank memory allocation (min/avg/max) = 13.4 | 13.4 | 13.4 Mbytes
   Step          Temp          PotEng           Lx             Ly             Lz            Pxx            Pyy            Pzz            Fmax          Fnorm     
       907  2.749665914753727e-19   -6337.417358285324    10.00328322048427    8.663097383217371        49.9812277894 -0.002157875729960135 -0.0009707098486185325 -2.31012205698733e-14 6.539765763036165e-06 3.818766968274561e-05
       908  2.749665914753727e-19   -6337.417358326438    10.00328322005427    8.663097383049854        49.9812277894 -8.58643456529129e-05  0.00108364878476938 -2.30995140804377e-14 6.494268306733719e-06 3.785762944609076e-05
Loop time of 0.00498512 on 1 procs for 1 steps with 32 atoms

93.4% CPU use with 1 MPI tasks x no OpenMP threads

Minimization stats:
  Stopping criterion = force tolerance
  Energy initial, next-to-last, final = 
     -6337.41735828532  -6337.41735828532  -6337.41735832644
  Force two-norm initial, final = 0.00016183962 9.1818436e-05
  Force max component initial, final = 0.00013630915 6.8452154e-05
  Final line search alpha, max atom move = 0.73362648 5.0218313e-05
  Iterations, force evaluations = 1 2

MPI task timing breakdown:
Section |  min time  |  avg time  |  max time  |%varavg| %total
---------------------------------------------------------------
Pair    | 0.0041678  | 0.0041678  | 0.0041678  |   0.0 | 83.60
Neigh   | 0          | 0          | 0          |   0.0 |  0.00
Comm    | 6.94e-06   | 6.94e-06   | 6.94e-06   |   0.0 |  0.14
Output  | 0          | 0          | 0          |   0.0 |  0.00
Modify  | 0.00035778 | 0.00035778 | 0.00035778 |   0.0 |  7.18
Other   |            | 0.0004526  |            |       |  9.08

Nlocal:             32 ave          32 max          32 min
Histogram: 1 0 0 0 0 0 0 0 0 0
Nghost:            418 ave         418 max         418 min
Histogram: 1 0 0 0 0 0 0 0 0 0
Neighs:           4887 ave        4887 max        4887 min
Histogram: 1 0 0 0 0 0 0 0 0 0

Total # of neighbors = 4887
Ave neighs/atom = 152.71875
Neighbor list builds = 0
Dangerous builds = 0

# Minimize the with fire
  unfix           frb
  min_style       fire
  minimize        0.0 1.0e-3 10000 10000
  Parameters for fire:
    dmax  delaystep dtgrow dtshrink alpha0 alphashrink tmax tmin   integrator   halfstepback   abcfire  
     0.1     20      1.1     0.5     0.25     0.99      10  0.02 eulerimplicit      yes          no     
Per MPI rank memory allocation (min/avg/max) = 12.28 | 12.28 | 12.28 Mbytes
   Step          Temp          PotEng           Lx             Ly             Lz            Pxx            Pyy            Pzz            Fmax          Fnorm     
       908                     0   -6337.417358315059    10.00328322005427    8.663097383049854        49.9812277894 -8.591320557657531e-05 0.001083390641079304 -2.309933434015186e-14 6.49404149932753e-06 3.78568209641368e-05
       909  2.701398992135704e-19   -6337.417358319122    10.00328322005427    8.663097383049854        49.9812277894 -8.612341604266957e-05 0.001083404846650632 -2.30992972888534e-14 6.496827024748963e-06 3.785777707664619e-05
Loop time of 0.00530454 on 1 procs for 1 steps with 32 atoms

93.2% CPU use with 1 MPI tasks x no OpenMP threads

Minimization stats:
  Stopping criterion = force tolerance
  Energy initial, next-to-last, final = 
     -6337.41735831506  -6337.41735831506  -6337.41735831912
  Force two-norm initial, final = 3.7856821e-05 3.7857777e-05
  Force max component initial, final = 6.4940415e-06 6.496827e-06
  Final line search alpha, max atom move = 0 0
  Iterations, force evaluations = 1 2

MPI task timing breakdown:
Section |  min time  |  avg time  |  max time  |%varavg| %total
---------------------------------------------------------------
Pair    | 0.0044461  | 0.0044461  | 0.0044461  |   0.0 | 83.82
Neigh   | 0          | 0          | 0          |   0.0 |  0.00
Comm    | 1.4922e-05 | 1.4922e-05 | 1.4922e-05 |   0.0 |  0.28
Output  | 0          | 0          | 0          |   0.0 |  0.00
Modify  | 0.00037267 | 0.00037267 | 0.00037267 |   0.0 |  7.03
Other   |            | 0.0004708  |            |       |  8.88

Nlocal:             32 ave          32 max          32 min
Histogram: 1 0 0 0 0 0 0 0 0 0
Nghost:            418 ave         418 max         418 min
Histogram: 1 0 0 0 0 0 0 0 0 0
Neighs:           4887 ave        4887 max        4887 min
Histogram: 1 0 0 0 0 0 0 0 0 0

Total # of neighbors = 4887
Ave neighs/atom = 152.71875
Neighbor list builds = 0
Dangerous builds = 0

next nr
jump ${simname}.in loopmin
jump ReaxFF.in loopmin

# Minimize the with cg + box/relax
  fix             frb all box/relax tri 0.0 couple none
  min_style       cg
  min_modify      line quadratic
  minimize        0.0 1.0e-3 10000 10000
Per MPI rank memory allocation (min/avg/max) = 13.4 | 13.4 | 13.4 Mbytes
   Step          Temp          PotEng           Lx             Ly             Lz            Pxx            Pyy            Pzz            Fmax          Fnorm     
WARNING: Too many warnings: 101 vs 100. All future warnings will be suppressed (src/thermo.cpp:472)
       909  2.701398992135704e-19    -6337.41735832123    10.00328322005427    8.663097383049854        49.9812277894 -8.628171037996516e-05 0.001083340512879382 -2.309950381143219e-14 6.493838303450739e-06 3.785567236585115e-05
       910  2.701398992135704e-19   -6337.417358324696    10.00328322000004    8.663097383639608        49.9812277894 -0.002131822207050747 -0.00101659568124942 -2.309244381311914e-14 6.409029202070204e-06 3.719723181476322e-05
Loop time of 0.00588624 on 1 procs for 1 steps with 32 atoms

96.6% CPU use with 1 MPI tasks x no OpenMP threads

Minimization stats:
  Stopping criterion = force tolerance
  Energy initial, next-to-last, final = 
     -6337.41735832123  -6337.41735832123   -6337.4173583247
  Force two-norm initial, final = 9.1804509e-05 0.00016051688
  Force max component initial, final = 6.8432681e-05 0.00013466339
  Final line search alpha, max atom move = 1 0.00013466339
  Iterations, force evaluations = 1 2

MPI task timing breakdown:
Section |  min time  |  avg time  |  max time  |%varavg| %total
---------------------------------------------------------------
Pair    | 0.0049912  | 0.0049912  | 0.0049912  |   0.0 | 84.79
Neigh   | 0          | 0          | 0          |   0.0 |  0.00
Comm    | 1.1306e-05 | 1.1306e-05 | 1.1306e-05 |   0.0 |  0.19
Output  | 0          | 0          | 0          |   0.0 |  0.00
Modify  | 0.00053129 | 0.00053129 | 0.00053129 |   0.0 |  9.03
Other   |            | 0.0003524  |            |       |  5.99

Nlocal:             32 ave          32 max          32 min
Histogram: 1 0 0 0 0 0 0 0 0 0
Nghost:            418 ave         418 max         418 min
Histogram: 1 0 0 0 0 0 0 0 0 0
Neighs:           4887 ave        4887 max        4887 min
Histogram: 1 0 0 0 0 0 0 0 0 0

Total # of neighbors = 4887
Ave neighs/atom = 152.71875
Neighbor list builds = 0
Dangerous builds = 0

# Minimize the with fire
  unfix           frb
  min_style       fire
  minimize        0.0 1.0e-3 10000 10000
  Parameters for fire:
    dmax  delaystep dtgrow dtshrink alpha0 alphashrink tmax tmin   integrator   halfstepback   abcfire  
     0.1     20      1.1     0.5     0.25     0.99      10  0.02 eulerimplicit      yes          no     
Per MPI rank memory allocation (min/avg/max) = 12.28 | 12.28 | 12.28 Mbytes
   Step          Temp          PotEng           Lx             Ly             Lz            Pxx            Pyy            Pzz            Fmax          Fnorm     
       910                     0   -6337.417358337835    10.00328322000004    8.663097383639608        49.9812277894 -0.002131304920933854 -0.001016101055361755 -2.309252630047145e-14 6.411183708920909e-06 3.719797776645046e-05
       911  2.608182932980286e-19   -6337.417358301686    10.00328322000004    8.663097383639608        49.9812277894 -0.002132200881934047 -0.001016960925259237 -2.309258753604401e-14 6.412225685648032e-06 3.720250293238613e-05
Loop time of 0.00554236 on 1 procs for 1 steps with 32 atoms

95.1% CPU use with 1 MPI tasks x no OpenMP threads

Minimization stats:
  Stopping criterion = force tolerance
  Energy initial, next-to-last, final = 
     -6337.41735833784  -6337.41735833784  -6337.41735830169
  Force two-norm initial, final = 3.7197978e-05 3.7202503e-05
  Force max component initial, final = 6.4111837e-06 6.4122257e-06
  Final line search alpha, max atom move = 0 0
  Iterations, force evaluations = 1 2

MPI task timing breakdown:
Section |  min time  |  avg time  |  max time  |%varavg| %total
---------------------------------------------------------------
Pair    | 0.004758   | 0.004758   | 0.004758   |   0.0 | 85.85
Neigh   | 0          | 0          | 0          |   0.0 |  0.00
Comm    | 7.722e-06  | 7.722e-06  | 7.722e-06  |   0.0 |  0.14
Output  | 0          | 0          | 0          |   0.0 |  0.00
Modify  | 0.00039622 | 0.00039622 | 0.00039622 |   0.0 |  7.15
Other   |            | 0.0003804  |            |       |  6.86

Nlocal:             32 ave          32 max          32 min
Histogram: 1 0 0 0 0 0 0 0 0 0
Nghost:            418 ave         418 max         418 min
Histogram: 1 0 0 0 0 0 0 0 0 0
Neighs:           4887 ave        4887 max        4887 min
Histogram: 1 0 0 0 0 0 0 0 0 0

Total # of neighbors = 4887
Ave neighs/atom = 152.71875
Neighbor list builds = 0
Dangerous builds = 0

next nr
jump ${simname}.in loopmin
jump ReaxFF.in loopmin

variable        energy equal pe
fix             output all ave/time 1 1 1 v_energy file ${simname}_energy.data
fix             output all ave/time 1 1 1 v_energy file ReaxFF_energy.data
dump            dump1 all custom 1 ${simname}.lammpstrj id type x y z fx fy fz
dump            dump1 all custom 1 ReaxFF.lammpstrj id type x y z fx fy fz
dump_modify     dump1 sort id

fix             nve all nve
run             0
Per MPI rank memory allocation (min/avg/max) = 12.28 | 12.28 | 12.28 Mbytes
   Step          Temp          PotEng           Lx             Ly             Lz            Pxx            Pyy            Pzz            Fmax          Fnorm     
       911  2.608182932980286e-19   -6337.417358282791    10.00328322000004    8.663097383639608        49.9812277894 -0.002132335289704732 -0.001017225319342357 -2.309256999743241e-14 6.410338702328433e-06 3.720551825714731e-05
Loop time of 1.776e-06 on 1 procs for 0 steps with 32 atoms

394.1% CPU use with 1 MPI tasks x no OpenMP threads

MPI task timing breakdown:
Section |  min time  |  avg time  |  max time  |%varavg| %total
---------------------------------------------------------------
Pair    | 0          | 0          | 0          |   0.0 |  0.00
Neigh   | 0          | 0          | 0          |   0.0 |  0.00
Comm    | 0          | 0          | 0          |   0.0 |  0.00
Output  | 0          | 0          | 0          |   0.0 |  0.00
Modify  | 0          | 0          | 0          |   0.0 |  0.00
Other   |            | 1.776e-06  |            |       |100.00

Nlocal:             32 ave          32 max          32 min
Histogram: 1 0 0 0 0 0 0 0 0 0
Nghost:            418 ave         418 max         418 min
Histogram: 1 0 0 0 0 0 0 0 0 0
Neighs:           4887 ave        4887 max        4887 min
Histogram: 1 0 0 0 0 0 0 0 0 0

Total # of neighbors = 4887
Ave neighs/atom = 152.71875
Neighbor list builds = 0
Dangerous builds = 0
Total wall time: 0:00:04
