units           metal
atom_style      atomic
boundary        p p p
processors		  * * 1
read_data		    V0.data
Reading data file ...
  triclinic box = (0 0 0) to (9.8543251 8.5338058 49.981228) with tilt (4.9251584 4.447365e-06 3.5155761e-06)
WARNING: Triclinic box skew is large. LAMMPS will run inefficiently. (src/domain.cpp:220)
  1 by 1 by 1 MPI processor grid
  reading atoms ...
  32 atoms
  read_data CPU = 0.029 seconds
mass            1 12.011

# Define potentials
pair_style      tersoff
pair_coeff      * * BNC.tersoff C
Reading tersoff potential file BNC.tersoff with DATE: 2013-03-21


# Variable
variable        thermofrq equal 10
variable        Nloop equal 100     # number of loop to run
variable        binding equal pe


# Output
thermo          ${thermofrq}
thermo          10
thermo_style    custom step temp pe lx ly lz pxx pyy pzz fmax fnorm
thermo_modify   line one format float %20.16g
thermo_modify   flush yes norm no lost warn

# Minimize the system in loops
timestep        1.0e-3
variable        nr loop ${Nloop}
variable        nr loop 100
label           loopmin

# Minimize the with cg + box/relax
  fix             frb all box/relax tri 0.0 couple none
  min_style       cg
  min_modify      line quadratic
  minimize        0.0 1.0e-3 10000 10000
Neighbor list info ...
  update: every = 1 steps, delay = 0 steps, check = yes
  max neighbors/atom: 2000, page size: 100000
  master list distance cutoff = 4.1
  ghost atom cutoff = 4.1
  binsize = 2.05, bins = 8 5 25
  1 neighbor lists, perpetual/occasional/extra = 1 0 0
  (1) pair tersoff, perpetual
      attributes: full, newton on
      pair build: full/bin/atomonly
      stencil: full/bin/3d
      bin: standard
WARNING: Energy due to 6 extra global DOFs will be included in minimizer energies
 (src/min.cpp:225)
Per MPI rank memory allocation (min/avg/max) = 4.202 | 4.202 | 4.202 Mbytes
   Step          Temp          PotEng           Lx             Ly             Lz            Pxx            Pyy            Pzz            Fmax          Fnorm     
         0                     0   -255.0110408690181    9.854325100500001         8.5338058206        49.9812277894    9208.222677946149    9212.346525155994 -2.074486112964296e-13  0.02871551379242554   0.1642473712931675
        10                     0   -255.0569864873822    9.864174803281914    8.542339626420606        49.9812277894    8370.041966659099    8374.204808526567 -2.060858682903742e-13  0.01465255564378332  0.08630192068177843
        20                     0   -255.0983157262199    9.874023987993196    8.550873432241211        49.9812277894    7540.283885043995     7544.46963399081 -2.046273684265178e-13 0.004241890613760901  0.02634232170812538
        30                     0   -255.1351380141919    9.883872567680166    8.559407238061818        49.9812277894    6718.850828597017    6723.034124407343 -2.030541856379008e-13 0.009368676123838071   0.0581901925354479
        40                     0   -255.1675692954173    9.893720439218436    8.567941043882424        49.9812277894    5905.643818534849    5909.788222689898 -2.013372247542521e-13   0.0191050856874817   0.1107434788031524
        50                     0   -255.1957338053883    9.903567478056855    8.576474849703029        49.9812277894    5100.562137377165    5104.617910920797 -1.994399178722034e-13  0.02711646051695382   0.1553114239617172
        60                     0    -255.219766550198    9.913413529745968    8.585008655523636        49.9812277894    4303.502939189726    4307.404236671379 -1.973073460962368e-13  0.03316618218726575   0.1892022491327457
        70                     0   -255.2398168923084    9.923258394984606     8.59354246134424        49.9812277894    3514.360944105391    3518.022164509692 -1.948470521707289e-13  0.03690691125249046   0.2102012328752557
        80                     0   -255.2560539550756    9.933101799636225    8.602076267164847        49.9812277894    2733.028625947481    2736.339515066222 -1.91906762192669e-13  0.03779482481670016   0.2151619037124737
        90                     0   -255.2686751266413    9.942943322097147    8.610610072985454        49.9812277894    1959.398516488327    1962.217431125515 -1.881826381974714e-13  0.03489135462294612   0.1987754929618281
       100                     0   -255.2779195888517    9.952782153665011    8.619143878806058        49.9812277894    1193.375687280684    1195.520742868295 -1.829408848837547e-13  0.02628712774982134   0.1503783577008864
       110                     0   -255.2833558259408    9.961151150589519    8.626406254833817        49.9812277894    547.4653058261738    548.8598813043023 -1.752960879228464e-13  0.01056314377058953   0.0632393955384884
       120                     0   -255.2856229948573    9.966148263728094    8.630747971659156        49.9812277894    164.1457116963166    165.0319431599599 -1.645966404767228e-13 0.008354144489313597  0.05090005994692303
       130                     0   -255.2863420052414    9.968280893908201    8.632625877407678        49.9812277894   0.1786784779764676   0.9167591924232252 -1.358991254649668e-13  0.02607198570723668   0.1482925649671418
       137                     0   -255.2864595627386    9.968197895834891     8.63271256157125        49.9812277894  -0.1657528588167581  -0.1557254336302451 -3.403306829802753e-14 1.080924561946972e-05 6.017582094763617e-05
Loop time of 0.00925668 on 1 procs for 137 steps with 32 atoms

20.0% CPU use with 1 MPI tasks x no OpenMP threads

Minimization stats:
  Stopping criterion = force tolerance
  Energy initial, next-to-last, final = 
     -255.011040869018  -255.286459561659  -255.286459562739
  Force two-norm initial, final = 34.171166 0.00067064473
  Force max component initial, final = 24.167764 0.00043987751
  Final line search alpha, max atom move = 0.05995562 2.6373129e-05
  Iterations, force evaluations = 137 142

MPI task timing breakdown:
Section |  min time  |  avg time  |  max time  |%varavg| %total
---------------------------------------------------------------
Pair    | 0.0049422  | 0.0049422  | 0.0049422  |   0.0 | 53.39
Neigh   | 0          | 0          | 0          |   0.0 |  0.00
Comm    | 8.1356e-05 | 8.1356e-05 | 8.1356e-05 |   0.0 |  0.88
Output  | 0.0031809  | 0.0031809  | 0.0031809  |   0.0 | 34.36
Modify  | 0          | 0          | 0          |   0.0 |  0.00
Other   |            | 0.001052   |            |       | 11.37

Nlocal:             32 ave          32 max          32 min
Histogram: 1 0 0 0 0 0 0 0 0 0
Nghost:             81 ave          81 max          81 min
Histogram: 1 0 0 0 0 0 0 0 0 0
Neighs:              0 ave           0 max           0 min
Histogram: 1 0 0 0 0 0 0 0 0 0
FullNghs:          576 ave         576 max         576 min
Histogram: 1 0 0 0 0 0 0 0 0 0

Total # of neighbors = 576
Ave neighs/atom = 18
Neighbor list builds = 0
Dangerous builds = 0

# Minimize the with fire
  unfix           frb
  min_style       fire
  minimize        0.0 1.0e-3 10000 10000
  Parameters for fire:
    dmax  delaystep dtgrow dtshrink alpha0 alphashrink tmax tmin   integrator   halfstepback   abcfire  
     0.1     20      1.1     0.5     0.25     0.99      10  0.02 eulerimplicit      yes          no     
Per MPI rank memory allocation (min/avg/max) = 3.077 | 3.077 | 3.077 Mbytes
   Step          Temp          PotEng           Lx             Ly             Lz            Pxx            Pyy            Pzz            Fmax          Fnorm     
       137                     0   -255.2864595627385    9.968197895834891     8.63271256157125        49.9812277894  -0.1657528588115057   -0.155725433666081 -3.403272318776462e-14 1.080924565854957e-05 6.017582073692096e-05
       138  3.629692824966299e-10   -255.2864595627413    9.968197895834891     8.63271256157125        49.9812277894  -0.1654258853428126  -0.1560524146542797 -3.333488111582894e-14 9.737452923985757e-06 5.408731330120295e-05
Loop time of 0.000476748 on 1 procs for 1 steps with 32 atoms

8.6% CPU use with 1 MPI tasks x no OpenMP threads

Minimization stats:
  Stopping criterion = force tolerance
  Energy initial, next-to-last, final = 
     -255.286459562739  -255.286459562739  -255.286459562741
  Force two-norm initial, final = 6.0175821e-05 5.4087313e-05
  Force max component initial, final = 1.0809246e-05 9.7374529e-06
  Final line search alpha, max atom move = 0 0
  Iterations, force evaluations = 1 2

MPI task timing breakdown:
Section |  min time  |  avg time  |  max time  |%varavg| %total
---------------------------------------------------------------
Pair    | 8.0665e-05 | 8.0665e-05 | 8.0665e-05 |   0.0 | 16.92
Neigh   | 0          | 0          | 0          |   0.0 |  0.00
Comm    | 2.212e-06  | 2.212e-06  | 2.212e-06  |   0.0 |  0.46
Output  | 0          | 0          | 0          |   0.0 |  0.00
Modify  | 0          | 0          | 0          |   0.0 |  0.00
Other   |            | 0.0003939  |            |       | 82.62

Nlocal:             32 ave          32 max          32 min
Histogram: 1 0 0 0 0 0 0 0 0 0
Nghost:             81 ave          81 max          81 min
Histogram: 1 0 0 0 0 0 0 0 0 0
Neighs:              0 ave           0 max           0 min
Histogram: 1 0 0 0 0 0 0 0 0 0
FullNghs:          576 ave         576 max         576 min
Histogram: 1 0 0 0 0 0 0 0 0 0

Total # of neighbors = 576
Ave neighs/atom = 18
Neighbor list builds = 0
Dangerous builds = 0

next nr
jump ${simname}.in loopmin
jump Tersoff.in loopmin

# Minimize the with cg + box/relax
  fix             frb all box/relax tri 0.0 couple none
  min_style       cg
  min_modify      line quadratic
  minimize        0.0 1.0e-3 10000 10000
WARNING: Energy due to 6 extra global DOFs will be included in minimizer energies
 (src/min.cpp:225)
Per MPI rank memory allocation (min/avg/max) = 4.202 | 4.202 | 4.202 Mbytes
   Step          Temp          PotEng           Lx             Ly             Lz            Pxx            Pyy            Pzz            Fmax          Fnorm     
       138  3.629692824966299e-10   -255.2864595627412    9.968197895834891     8.63271256157125        49.9812277894  -0.1654258854972399  -0.1560524147298391 -3.33347923731899e-14 9.737453076752445e-06 5.408731316842327e-05
       139  3.629692824966299e-10   -255.2864595628621    9.968195794852114    8.632710845164773        49.9812277894 -0.005216376008585478 -0.005224653873228752 -3.307167413412836e-14 3.142036277381521e-06 1.731390441430536e-05
Loop time of 0.000475617 on 1 procs for 1 steps with 32 atoms

9.5% CPU use with 1 MPI tasks x no OpenMP threads

Minimization stats:
  Stopping criterion = force tolerance
  Energy initial, next-to-last, final = 
     -255.286459562741  -255.286459562741  -255.286459562862
  Force two-norm initial, final = 0.00067491732 5.2355004e-05
  Force max component initial, final = 0.00044408281 4.526002e-05
  Final line search alpha, max atom move = 0.22518322 1.0191797e-05
  Iterations, force evaluations = 1 2

MPI task timing breakdown:
Section |  min time  |  avg time  |  max time  |%varavg| %total
---------------------------------------------------------------
Pair    | 8.6946e-05 | 8.6946e-05 | 8.6946e-05 |   0.0 | 18.28
Neigh   | 0          | 0          | 0          |   0.0 |  0.00
Comm    | 2.771e-06  | 2.771e-06  | 2.771e-06  |   0.0 |  0.58
Output  | 0          | 0          | 0          |   0.0 |  0.00
Modify  | 0          | 0          | 0          |   0.0 |  0.00
Other   |            | 0.0003859  |            |       | 81.14

Nlocal:             32 ave          32 max          32 min
Histogram: 1 0 0 0 0 0 0 0 0 0
Nghost:             81 ave          81 max          81 min
Histogram: 1 0 0 0 0 0 0 0 0 0
Neighs:              0 ave           0 max           0 min
Histogram: 1 0 0 0 0 0 0 0 0 0
FullNghs:          576 ave         576 max         576 min
Histogram: 1 0 0 0 0 0 0 0 0 0

Total # of neighbors = 576
Ave neighs/atom = 18
Neighbor list builds = 0
Dangerous builds = 0

# Minimize the with fire
  unfix           frb
  min_style       fire
  minimize        0.0 1.0e-3 10000 10000
  Parameters for fire:
    dmax  delaystep dtgrow dtshrink alpha0 alphashrink tmax tmin   integrator   halfstepback   abcfire  
     0.1     20      1.1     0.5     0.25     0.99      10  0.02 eulerimplicit      yes          no     
Per MPI rank memory allocation (min/avg/max) = 3.077 | 3.077 | 3.077 Mbytes
   Step          Temp          PotEng           Lx             Ly             Lz            Pxx            Pyy            Pzz            Fmax          Fnorm     
       139                     0    -255.286459562862    9.968195794852114    8.632710845164773        49.9812277894 -0.005216376755809712 -0.005224653878346953 -3.330600856821713e-14 3.142036337777654e-06 1.731390454443545e-05
       140  3.004801950431952e-11   -255.2864595628621    9.968195794852114    8.632710845164773        49.9812277894 -0.004994344403725058 -0.005446686658890722 -3.265403644839961e-14 2.845339309942574e-06 1.556663635237877e-05
Loop time of 0.000574452 on 1 procs for 1 steps with 32 atoms

6.8% CPU use with 1 MPI tasks x no OpenMP threads

Minimization stats:
  Stopping criterion = force tolerance
  Energy initial, next-to-last, final = 
     -255.286459562862  -255.286459562862  -255.286459562862
  Force two-norm initial, final = 1.7313905e-05 1.5566636e-05
  Force max component initial, final = 3.1420363e-06 2.8453393e-06
  Final line search alpha, max atom move = 0 0
  Iterations, force evaluations = 1 2

MPI task timing breakdown:
Section |  min time  |  avg time  |  max time  |%varavg| %total
---------------------------------------------------------------
Pair    | 8.1192e-05 | 8.1192e-05 | 8.1192e-05 |   0.0 | 14.13
Neigh   | 0          | 0          | 0          |   0.0 |  0.00
Comm    | 1.999e-06  | 1.999e-06  | 1.999e-06  |   0.0 |  0.35
Output  | 0          | 0          | 0          |   0.0 |  0.00
Modify  | 0          | 0          | 0          |   0.0 |  0.00
Other   |            | 0.0004913  |            |       | 85.52

Nlocal:             32 ave          32 max          32 min
Histogram: 1 0 0 0 0 0 0 0 0 0
Nghost:             81 ave          81 max          81 min
Histogram: 1 0 0 0 0 0 0 0 0 0
Neighs:              0 ave           0 max           0 min
Histogram: 1 0 0 0 0 0 0 0 0 0
FullNghs:          576 ave         576 max         576 min
Histogram: 1 0 0 0 0 0 0 0 0 0

Total # of neighbors = 576
Ave neighs/atom = 18
Neighbor list builds = 0
Dangerous builds = 0

next nr
jump ${simname}.in loopmin
jump Tersoff.in loopmin

# Minimize the with cg + box/relax
  fix             frb all box/relax tri 0.0 couple none
  min_style       cg
  min_modify      line quadratic
  minimize        0.0 1.0e-3 10000 10000
WARNING: Energy due to 6 extra global DOFs will be included in minimizer energies
 (src/min.cpp:225)
Per MPI rank memory allocation (min/avg/max) = 4.202 | 4.202 | 4.202 Mbytes
   Step          Temp          PotEng           Lx             Ly             Lz            Pxx            Pyy            Pzz            Fmax          Fnorm     
       140  3.004801950431952e-11   -255.2864595628621    9.968195794852114    8.632710845164773        49.9812277894 -0.004994344131802229 -0.005446686800021773 -3.265411040062909e-14 2.845339242441014e-06 1.556663630447456e-05
       141  3.004801950431952e-11   -255.2864595628633     9.96819567660614    8.632710733485924        49.9812277894 0.004235016437978977 0.004155830033256442 -3.219651452360255e-14 3.450490183354304e-06 1.871651436659402e-05
Loop time of 0.000488179 on 1 procs for 1 steps with 32 atoms

9.0% CPU use with 1 MPI tasks x no OpenMP threads

Minimization stats:
  Stopping criterion = force tolerance
  Energy initial, next-to-last, final = 
     -255.286459562862  -255.286459562862  -255.286459562863
  Force two-norm initial, final = 5.3436065e-05 2.4582799e-05
  Force max component initial, final = 4.7112103e-05 1.136882e-05
  Final line search alpha, max atom move = 1 1.136882e-05
  Iterations, force evaluations = 1 2

MPI task timing breakdown:
Section |  min time  |  avg time  |  max time  |%varavg| %total
---------------------------------------------------------------
Pair    | 8.1465e-05 | 8.1465e-05 | 8.1465e-05 |   0.0 | 16.69
Neigh   | 0          | 0          | 0          |   0.0 |  0.00
Comm    | 2.082e-06  | 2.082e-06  | 2.082e-06  |   0.0 |  0.43
Output  | 0          | 0          | 0          |   0.0 |  0.00
Modify  | 0          | 0          | 0          |   0.0 |  0.00
Other   |            | 0.0004046  |            |       | 82.89

Nlocal:             32 ave          32 max          32 min
Histogram: 1 0 0 0 0 0 0 0 0 0
Nghost:             81 ave          81 max          81 min
Histogram: 1 0 0 0 0 0 0 0 0 0
Neighs:              0 ave           0 max           0 min
Histogram: 1 0 0 0 0 0 0 0 0 0
FullNghs:          576 ave         576 max         576 min
Histogram: 1 0 0 0 0 0 0 0 0 0

Total # of neighbors = 576
Ave neighs/atom = 18
Neighbor list builds = 0
Dangerous builds = 0

# Minimize the with fire
  unfix           frb
  min_style       fire
  minimize        0.0 1.0e-3 10000 10000
  Parameters for fire:
    dmax  delaystep dtgrow dtshrink alpha0 alphashrink tmax tmin   integrator   halfstepback   abcfire  
     0.1     20      1.1     0.5     0.25     0.99      10  0.02 eulerimplicit      yes          no     
Per MPI rank memory allocation (min/avg/max) = 3.077 | 3.077 | 3.077 Mbytes
   Step          Temp          PotEng           Lx             Ly             Lz            Pxx            Pyy            Pzz            Fmax          Fnorm     
       141                     0   -255.2864595628635     9.96819567660614    8.632710733485924        49.9812277894 0.004235016390397575 0.004155829810796479 -3.241550127535497e-14 3.45049027572486e-06 1.871651452571362e-05
       142   3.5113633534541e-11   -255.2864595628633     9.96819567660614    8.632710733485924        49.9812277894 0.004417217332429155 0.003973629078493616 -3.181566290454196e-14 3.121492841984264e-06 1.682649214821667e-05
Loop time of 0.000543494 on 1 procs for 1 steps with 32 atoms

7.5% CPU use with 1 MPI tasks x no OpenMP threads

Minimization stats:
  Stopping criterion = force tolerance
  Energy initial, next-to-last, final = 
     -255.286459562864  -255.286459562864  -255.286459562863
  Force two-norm initial, final = 1.8716515e-05 1.6826492e-05
  Force max component initial, final = 3.4504903e-06 3.1214928e-06
  Final line search alpha, max atom move = 0 0
  Iterations, force evaluations = 1 2

MPI task timing breakdown:
Section |  min time  |  avg time  |  max time  |%varavg| %total
---------------------------------------------------------------
Pair    | 8.0492e-05 | 8.0492e-05 | 8.0492e-05 |   0.0 | 14.81
Neigh   | 0          | 0          | 0          |   0.0 |  0.00
Comm    | 2.004e-06  | 2.004e-06  | 2.004e-06  |   0.0 |  0.37
Output  | 0          | 0          | 0          |   0.0 |  0.00
Modify  | 0          | 0          | 0          |   0.0 |  0.00
Other   |            | 0.000461   |            |       | 84.82

Nlocal:             32 ave          32 max          32 min
Histogram: 1 0 0 0 0 0 0 0 0 0
Nghost:             81 ave          81 max          81 min
Histogram: 1 0 0 0 0 0 0 0 0 0
Neighs:              0 ave           0 max           0 min
Histogram: 1 0 0 0 0 0 0 0 0 0
FullNghs:          576 ave         576 max         576 min
Histogram: 1 0 0 0 0 0 0 0 0 0

Total # of neighbors = 576
Ave neighs/atom = 18
Neighbor list builds = 0
Dangerous builds = 0

next nr
jump ${simname}.in loopmin
jump Tersoff.in loopmin

# Minimize the with cg + box/relax
  fix             frb all box/relax tri 0.0 couple none
  min_style       cg
  min_modify      line quadratic
  minimize        0.0 1.0e-3 10000 10000
WARNING: Energy due to 6 extra global DOFs will be included in minimizer energies
 (src/min.cpp:225)
Per MPI rank memory allocation (min/avg/max) = 4.202 | 4.202 | 4.202 Mbytes
   Step          Temp          PotEng           Lx             Ly             Lz            Pxx            Pyy            Pzz            Fmax          Fnorm     
       142   3.5113633534541e-11   -255.2864595628634     9.96819567660614    8.632710733485924        49.9812277894 0.004417217062243317 0.003973629071007984 -3.181580587885584e-14 3.121492948565674e-06 1.682649251275597e-05
       143   3.5113633534541e-11   -255.2864595628639    9.968195792064101    8.632710823434257        49.9812277894 -0.004177589301483857 -0.004139516507460157 -3.134937860586678e-14 2.970995637952001e-06 1.594180453858015e-05
Loop time of 0.000701115 on 1 procs for 1 steps with 32 atoms

0.0% CPU use with 1 MPI tasks x no OpenMP threads

Minimization stats:
  Stopping criterion = force tolerance
  Energy initial, next-to-last, final = 
     -255.286459562863  -255.286459562863  -255.286459562864
  Force two-norm initial, final = 2.3330355e-05 2.3339052e-05
  Force max component initial, final = 1.1857934e-05 1.1214659e-05
  Final line search alpha, max atom move = 1 1.1214659e-05
  Iterations, force evaluations = 1 2

MPI task timing breakdown:
Section |  min time  |  avg time  |  max time  |%varavg| %total
---------------------------------------------------------------
Pair    | 9.9017e-05 | 9.9017e-05 | 9.9017e-05 |   0.0 | 14.12
Neigh   | 0          | 0          | 0          |   0.0 |  0.00
Comm    | 2.744e-06  | 2.744e-06  | 2.744e-06  |   0.0 |  0.39
Output  | 0          | 0          | 0          |   0.0 |  0.00
Modify  | 0          | 0          | 0          |   0.0 |  0.00
Other   |            | 0.0005994  |            |       | 85.49

Nlocal:             32 ave          32 max          32 min
Histogram: 1 0 0 0 0 0 0 0 0 0
Nghost:             81 ave          81 max          81 min
Histogram: 1 0 0 0 0 0 0 0 0 0
Neighs:              0 ave           0 max           0 min
Histogram: 1 0 0 0 0 0 0 0 0 0
FullNghs:          576 ave         576 max         576 min
Histogram: 1 0 0 0 0 0 0 0 0 0

Total # of neighbors = 576
Ave neighs/atom = 18
Neighbor list builds = 0
Dangerous builds = 0

# Minimize the with fire
  unfix           frb
  min_style       fire
  minimize        0.0 1.0e-3 10000 10000
  Parameters for fire:
    dmax  delaystep dtgrow dtshrink alpha0 alphashrink tmax tmin   integrator   halfstepback   abcfire  
     0.1     20      1.1     0.5     0.25     0.99      10  0.02 eulerimplicit      yes          no     
Per MPI rank memory allocation (min/avg/max) = 3.077 | 3.077 | 3.077 Mbytes
   Step          Temp          PotEng           Lx             Ly             Lz            Pxx            Pyy            Pzz            Fmax          Fnorm     
       143                     0   -255.2864595628638    9.968195792064101    8.632710823434257        49.9812277894 -0.004177589439001143 -0.004139516639287819 -3.155064895647465e-14 2.970995360840334e-06  1.5941804300007e-05
       144  2.547421273196352e-11   -255.2864595628641    9.968195792064101    8.632710823434257        49.9812277894 -0.004028693891714267 -0.004288412472668618 -3.099664164451828e-14 2.689443604708686e-06 1.433283921397259e-05
Loop time of 0.000561536 on 1 procs for 1 steps with 32 atoms

0.0% CPU use with 1 MPI tasks x no OpenMP threads

Minimization stats:
  Stopping criterion = force tolerance
  Energy initial, next-to-last, final = 
     -255.286459562864  -255.286459562864  -255.286459562864
  Force two-norm initial, final = 1.5941804e-05 1.4332839e-05
  Force max component initial, final = 2.9709954e-06 2.6894436e-06
  Final line search alpha, max atom move = 0 0
  Iterations, force evaluations = 1 2

MPI task timing breakdown:
Section |  min time  |  avg time  |  max time  |%varavg| %total
---------------------------------------------------------------
Pair    | 8.1008e-05 | 8.1008e-05 | 8.1008e-05 |   0.0 | 14.43
Neigh   | 0          | 0          | 0          |   0.0 |  0.00
Comm    | 2.072e-06  | 2.072e-06  | 2.072e-06  |   0.0 |  0.37
Output  | 0          | 0          | 0          |   0.0 |  0.00
Modify  | 0          | 0          | 0          |   0.0 |  0.00
Other   |            | 0.0004785  |            |       | 85.20

Nlocal:             32 ave          32 max          32 min
Histogram: 1 0 0 0 0 0 0 0 0 0
Nghost:             81 ave          81 max          81 min
Histogram: 1 0 0 0 0 0 0 0 0 0
Neighs:              0 ave           0 max           0 min
Histogram: 1 0 0 0 0 0 0 0 0 0
FullNghs:          576 ave         576 max         576 min
Histogram: 1 0 0 0 0 0 0 0 0 0

Total # of neighbors = 576
Ave neighs/atom = 18
Neighbor list builds = 0
Dangerous builds = 0

next nr
jump ${simname}.in loopmin
jump Tersoff.in loopmin

# Minimize the with cg + box/relax
  fix             frb all box/relax tri 0.0 couple none
  min_style       cg
  min_modify      line quadratic
  minimize        0.0 1.0e-3 10000 10000
WARNING: Energy due to 6 extra global DOFs will be included in minimizer energies
 (src/min.cpp:225)
Per MPI rank memory allocation (min/avg/max) = 4.202 | 4.202 | 4.202 Mbytes
   Step          Temp          PotEng           Lx             Ly             Lz            Pxx            Pyy            Pzz            Fmax          Fnorm     
       144  2.547421273196352e-11   -255.2864595628642    9.968195792064101    8.632710823434257        49.9812277894 -0.004028693824591719 -0.004288412611111458 -3.099675996808579e-14 2.689443590497831e-06 1.433283905381306e-05
       145  2.547421273196352e-11   -255.2864595628642    9.968195710035726    8.632710747815933        49.9812277894 0.002347774195944795 0.002235852330921973 -3.065944464871774e-14 2.256442673598258e-06 1.193209237780424e-05
Loop time of 0.000534176 on 1 procs for 1 steps with 32 atoms

0.0% CPU use with 1 MPI tasks x no OpenMP threads

Minimization stats:
  Stopping criterion = force tolerance
  Energy initial, next-to-last, final = 
     -255.286459562864  -255.286459562864  -255.286459562864
  Force two-norm initial, final = 2.1833731e-05 1.643461e-05
  Force max component initial, final = 1.1512162e-05 7.2093088e-06
  Final line search alpha, max atom move = 1 7.2093088e-06
  Iterations, force evaluations = 1 2

MPI task timing breakdown:
Section |  min time  |  avg time  |  max time  |%varavg| %total
---------------------------------------------------------------
Pair    | 0.00010008 | 0.00010008 | 0.00010008 |   0.0 | 18.74
Neigh   | 0          | 0          | 0          |   0.0 |  0.00
Comm    | 3.008e-06  | 3.008e-06  | 3.008e-06  |   0.0 |  0.56
Output  | 0          | 0          | 0          |   0.0 |  0.00
Modify  | 0          | 0          | 0          |   0.0 |  0.00
Other   |            | 0.0004311  |            |       | 80.70

Nlocal:             32 ave          32 max          32 min
Histogram: 1 0 0 0 0 0 0 0 0 0
Nghost:             81 ave          81 max          81 min
Histogram: 1 0 0 0 0 0 0 0 0 0
Neighs:              0 ave           0 max           0 min
Histogram: 1 0 0 0 0 0 0 0 0 0
FullNghs:          576 ave         576 max         576 min
Histogram: 1 0 0 0 0 0 0 0 0 0

Total # of neighbors = 576
Ave neighs/atom = 18
Neighbor list builds = 0
Dangerous builds = 0

# Minimize the with fire
  unfix           frb
  min_style       fire
  minimize        0.0 1.0e-3 10000 10000
  Parameters for fire:
    dmax  delaystep dtgrow dtshrink alpha0 alphashrink tmax tmin   integrator   halfstepback   abcfire  
     0.1     20      1.1     0.5     0.25     0.99      10  0.02 eulerimplicit      yes          no     
Per MPI rank memory allocation (min/avg/max) = 3.077 | 3.077 | 3.077 Mbytes
   Step          Temp          PotEng           Lx             Ly             Lz            Pxx            Pyy            Pzz            Fmax          Fnorm     
       145                     0   -255.2864595628641    9.968195710035726    8.632710747815933        49.9812277894 0.002347774181707595  0.00223585227469299 -3.084492828266792e-14 2.256442552805993e-06 1.193209189161734e-05
       146  1.427115124336118e-11   -255.2864595628643    9.968195710035726    8.632710747815933        49.9812277894 0.002471183832956504 0.002112442787203945 -3.03250409825596e-14 2.046308086534054e-06 1.072989877625668e-05
Loop time of 0.000507746 on 1 procs for 1 steps with 32 atoms

0.0% CPU use with 1 MPI tasks x no OpenMP threads

Minimization stats:
  Stopping criterion = force tolerance
  Energy initial, next-to-last, final = 
     -255.286459562864  -255.286459562864  -255.286459562864
  Force two-norm initial, final = 1.1932092e-05 1.0729899e-05
  Force max component initial, final = 2.2564426e-06 2.0463081e-06
  Final line search alpha, max atom move = 0 0
  Iterations, force evaluations = 1 2

MPI task timing breakdown:
Section |  min time  |  avg time  |  max time  |%varavg| %total
---------------------------------------------------------------
Pair    | 8.0626e-05 | 8.0626e-05 | 8.0626e-05 |   0.0 | 15.88
Neigh   | 0          | 0          | 0          |   0.0 |  0.00
Comm    | 1.924e-06  | 1.924e-06  | 1.924e-06  |   0.0 |  0.38
Output  | 0          | 0          | 0          |   0.0 |  0.00
Modify  | 0          | 0          | 0          |   0.0 |  0.00
Other   |            | 0.0004252  |            |       | 83.74

Nlocal:             32 ave          32 max          32 min
Histogram: 1 0 0 0 0 0 0 0 0 0
Nghost:             81 ave          81 max          81 min
Histogram: 1 0 0 0 0 0 0 0 0 0
Neighs:              0 ave           0 max           0 min
Histogram: 1 0 0 0 0 0 0 0 0 0
FullNghs:          576 ave         576 max         576 min
Histogram: 1 0 0 0 0 0 0 0 0 0

Total # of neighbors = 576
Ave neighs/atom = 18
Neighbor list builds = 0
Dangerous builds = 0

next nr
jump ${simname}.in loopmin
jump Tersoff.in loopmin

# Minimize the with cg + box/relax
  fix             frb all box/relax tri 0.0 couple none
  min_style       cg
  min_modify      line quadratic
  minimize        0.0 1.0e-3 10000 10000
WARNING: Energy due to 6 extra global DOFs will be included in minimizer energies
 (src/min.cpp:225)
Per MPI rank memory allocation (min/avg/max) = 4.202 | 4.202 | 4.202 Mbytes
   Step          Temp          PotEng           Lx             Ly             Lz            Pxx            Pyy            Pzz            Fmax          Fnorm     
       146  1.427115124336118e-11   -255.2864595628645    9.968195710035726    8.632710747815933        49.9812277894 0.002471183825760371 0.002112442727174136 -3.03250409825596e-14 2.046307990610785e-06 1.072989837104404e-05
       147  1.427115124336118e-11   -255.2864595628644    9.968195773320208    8.632710794665735        49.9812277894 -0.002216366947344262 -0.002142192604369994 -2.992657121935089e-14 2.105631899951277e-06 1.102135989465457e-05
Loop time of 0.000382328 on 1 procs for 1 steps with 32 atoms

0.0% CPU use with 1 MPI tasks x no OpenMP threads

Minimization stats:
  Stopping criterion = force tolerance
  Energy initial, next-to-last, final = 
     -255.286459562864  -255.286459562864  -255.286459562864
  Force two-norm initial, final = 1.6241831e-05 1.4808295e-05
  Force max component initial, final = 8.5147122e-06 5.9497947e-06
  Final line search alpha, max atom move = 1 5.9497947e-06
  Iterations, force evaluations = 1 2

MPI task timing breakdown:
Section |  min time  |  avg time  |  max time  |%varavg| %total
---------------------------------------------------------------
Pair    | 0.00010002 | 0.00010002 | 0.00010002 |   0.0 | 26.16
Neigh   | 0          | 0          | 0          |   0.0 |  0.00
Comm    | 2.574e-06  | 2.574e-06  | 2.574e-06  |   0.0 |  0.67
Output  | 0          | 0          | 0          |   0.0 |  0.00
Modify  | 0          | 0          | 0          |   0.0 |  0.00
Other   |            | 0.0002797  |            |       | 73.17

Nlocal:             32 ave          32 max          32 min
Histogram: 1 0 0 0 0 0 0 0 0 0
Nghost:             81 ave          81 max          81 min
Histogram: 1 0 0 0 0 0 0 0 0 0
Neighs:              0 ave           0 max           0 min
Histogram: 1 0 0 0 0 0 0 0 0 0
FullNghs:          576 ave         576 max         576 min
Histogram: 1 0 0 0 0 0 0 0 0 0

Total # of neighbors = 576
Ave neighs/atom = 18
Neighbor list builds = 0
Dangerous builds = 0

# Minimize the with fire
  unfix           frb
  min_style       fire
  minimize        0.0 1.0e-3 10000 10000
  Parameters for fire:
    dmax  delaystep dtgrow dtshrink alpha0 alphashrink tmax tmin   integrator   halfstepback   abcfire  
     0.1     20      1.1     0.5     0.25     0.99      10  0.02 eulerimplicit      yes          no     
Per MPI rank memory allocation (min/avg/max) = 3.077 | 3.077 | 3.077 Mbytes
   Step          Temp          PotEng           Lx             Ly             Lz            Pxx            Pyy            Pzz            Fmax          Fnorm     
       147                     0   -255.2864595628645    9.968195773320208    8.632710794665735        49.9812277894 -0.002216367110444534 -0.002142192613011501 -3.010014021987724e-14 2.105631992321833e-06 1.102135986470471e-05
       148  1.217576299855565e-11   -255.2864595628646    9.968195773320208    8.632710794665735        49.9812277894 -0.002114631547171577 -0.002243928380261661 -2.96137593154511e-14 1.909799966171022e-06 9.911215189512734e-06
Loop time of 0.000463522 on 1 procs for 1 steps with 32 atoms

0.0% CPU use with 1 MPI tasks x no OpenMP threads

Minimization stats:
  Stopping criterion = force tolerance
  Energy initial, next-to-last, final = 
     -255.286459562864  -255.286459562864  -255.286459562865
  Force two-norm initial, final = 1.102136e-05 9.9112152e-06
  Force max component initial, final = 2.105632e-06 1.9098e-06
  Final line search alpha, max atom move = 0 0
  Iterations, force evaluations = 1 2

MPI task timing breakdown:
Section |  min time  |  avg time  |  max time  |%varavg| %total
---------------------------------------------------------------
Pair    | 8.5616e-05 | 8.5616e-05 | 8.5616e-05 |   0.0 | 18.47
Neigh   | 0          | 0          | 0          |   0.0 |  0.00
Comm    | 2.155e-06  | 2.155e-06  | 2.155e-06  |   0.0 |  0.46
Output  | 0          | 0          | 0          |   0.0 |  0.00
Modify  | 0          | 0          | 0          |   0.0 |  0.00
Other   |            | 0.0003758  |            |       | 81.06

Nlocal:             32 ave          32 max          32 min
Histogram: 1 0 0 0 0 0 0 0 0 0
Nghost:             81 ave          81 max          81 min
Histogram: 1 0 0 0 0 0 0 0 0 0
Neighs:              0 ave           0 max           0 min
Histogram: 1 0 0 0 0 0 0 0 0 0
FullNghs:          576 ave         576 max         576 min
Histogram: 1 0 0 0 0 0 0 0 0 0

Total # of neighbors = 576
Ave neighs/atom = 18
Neighbor list builds = 0
Dangerous builds = 0

next nr
jump ${simname}.in loopmin
jump Tersoff.in loopmin

# Minimize the with cg + box/relax
  fix             frb all box/relax tri 0.0 couple none
  min_style       cg
  min_modify      line quadratic
  minimize        0.0 1.0e-3 10000 10000
WARNING: Energy due to 6 extra global DOFs will be included in minimizer energies
 (src/min.cpp:225)
Per MPI rank memory allocation (min/avg/max) = 4.202 | 4.202 | 4.202 Mbytes
   Step          Temp          PotEng           Lx             Ly             Lz            Pxx            Pyy            Pzz            Fmax          Fnorm     
       148  1.217576299855565e-11   -255.2864595628645    9.968195773320208    8.632710794665735        49.9812277894 -0.002114631225413459 -0.002243928301952022 -2.961358676024758e-14 1.909799802746193e-06 9.911215428434227e-06
       149  1.217576299855565e-11   -255.2864595628646    9.968195722937917    8.632710748365534        49.9812277894 0.001825298591667756 0.001727089517469554 -2.926447830750634e-14 1.556569685590148e-06 7.960060646748479e-06
Loop time of 0.000394059 on 1 procs for 1 steps with 32 atoms

0.0% CPU use with 1 MPI tasks x no OpenMP threads

Minimization stats:
  Stopping criterion = force tolerance
  Energy initial, next-to-last, final = 
     -255.286459562864  -255.286459562864  -255.286459562865
  Force two-norm initial, final = 1.3579092e-05 1.1792854e-05
  Force max component initial, final = 6.0237826e-06 5.4957631e-06
  Final line search alpha, max atom move = 1 5.4957631e-06
  Iterations, force evaluations = 1 2

MPI task timing breakdown:
Section |  min time  |  avg time  |  max time  |%varavg| %total
---------------------------------------------------------------
Pair    | 0.00010002 | 0.00010002 | 0.00010002 |   0.0 | 25.38
Neigh   | 0          | 0          | 0          |   0.0 |  0.00
Comm    | 3.366e-06  | 3.366e-06  | 3.366e-06  |   0.0 |  0.85
Output  | 0          | 0          | 0          |   0.0 |  0.00
Modify  | 0          | 0          | 0          |   0.0 |  0.00
Other   |            | 0.0002907  |            |       | 73.76

Nlocal:             32 ave          32 max          32 min
Histogram: 1 0 0 0 0 0 0 0 0 0
Nghost:             81 ave          81 max          81 min
Histogram: 1 0 0 0 0 0 0 0 0 0
Neighs:              0 ave           0 max           0 min
Histogram: 1 0 0 0 0 0 0 0 0 0
FullNghs:          576 ave         576 max         576 min
Histogram: 1 0 0 0 0 0 0 0 0 0

Total # of neighbors = 576
Ave neighs/atom = 18
Neighbor list builds = 0
Dangerous builds = 0

# Minimize the with fire
  unfix           frb
  min_style       fire
  minimize        0.0 1.0e-3 10000 10000
  Parameters for fire:
    dmax  delaystep dtgrow dtshrink alpha0 alphashrink tmax tmin   integrator   halfstepback   abcfire  
     0.1     20      1.1     0.5     0.25     0.99      10  0.02 eulerimplicit      yes          no     
Per MPI rank memory allocation (min/avg/max) = 3.077 | 3.077 | 3.077 Mbytes
   Step          Temp          PotEng           Lx             Ly             Lz            Pxx            Pyy            Pzz            Fmax          Fnorm     
       149                     0   -255.2864595628647    9.968195722937917    8.632710748365534        49.9812277894 0.001825298555164046  0.00172708944367798 -2.942773233952602e-14 1.556569550587028e-06 7.96006050929265e-06
       150  6.351240596820794e-12   -255.2864595628648    9.968195722937917    8.632710748365534        49.9812277894 0.001907885804621733 0.001644502390044423 -2.896802255592656e-14 1.415431409412804e-06 7.161074425011285e-06
Loop time of 0.000460275 on 1 procs for 1 steps with 32 atoms

0.0% CPU use with 1 MPI tasks x no OpenMP threads

Minimization stats:
  Stopping criterion = force tolerance
  Energy initial, next-to-last, final = 
     -255.286459562865  -255.286459562865  -255.286459562865
  Force two-norm initial, final = 7.9600605e-06 7.1610744e-06
  Force max component initial, final = 1.5565696e-06 1.4154314e-06
  Final line search alpha, max atom move = 0 0
  Iterations, force evaluations = 1 2

MPI task timing breakdown:
Section |  min time  |  avg time  |  max time  |%varavg| %total
---------------------------------------------------------------
Pair    | 0.0001227  | 0.0001227  | 0.0001227  |   0.0 | 26.66
Neigh   | 0          | 0          | 0          |   0.0 |  0.00
Comm    | 3.462e-06  | 3.462e-06  | 3.462e-06  |   0.0 |  0.75
Output  | 0          | 0          | 0          |   0.0 |  0.00
Modify  | 0          | 0          | 0          |   0.0 |  0.00
Other   |            | 0.0003341  |            |       | 72.59

Nlocal:             32 ave          32 max          32 min
Histogram: 1 0 0 0 0 0 0 0 0 0
Nghost:             81 ave          81 max          81 min
Histogram: 1 0 0 0 0 0 0 0 0 0
Neighs:              0 ave           0 max           0 min
Histogram: 1 0 0 0 0 0 0 0 0 0
FullNghs:          576 ave         576 max         576 min
Histogram: 1 0 0 0 0 0 0 0 0 0

Total # of neighbors = 576
Ave neighs/atom = 18
Neighbor list builds = 0
Dangerous builds = 0

next nr
jump ${simname}.in loopmin
jump Tersoff.in loopmin

# Minimize the with cg + box/relax
  fix             frb all box/relax tri 0.0 couple none
  min_style       cg
  min_modify      line quadratic
  minimize        0.0 1.0e-3 10000 10000
WARNING: Energy due to 6 extra global DOFs will be included in minimizer energies
 (src/min.cpp:225)
Per MPI rank memory allocation (min/avg/max) = 4.202 | 4.202 | 4.202 Mbytes
   Step          Temp          PotEng           Lx             Ly             Lz            Pxx            Pyy            Pzz            Fmax          Fnorm     
       150  6.351240596820794e-12   -255.2864595628648    9.968195722937917    8.632710748365534        49.9812277894 0.001907885896351748 0.001644502341739347 -2.896789930220847e-14 1.415431292173253e-06 7.16107423237337e-06
       151  6.351240596820794e-12   -255.2864595628647    9.968195766462397    8.632710780855282        49.9812277894 -0.001328170846570762 -0.001293118156155503 -2.865174835224276e-14 1.47180062626262e-06 7.456208241821461e-06
Loop time of 0.000547181 on 1 procs for 1 steps with 32 atoms

0.0% CPU use with 1 MPI tasks x no OpenMP threads

Minimization stats:
  Stopping criterion = force tolerance
  Energy initial, next-to-last, final = 
     -255.286459562865  -255.286459562865  -255.286459562865
  Force two-norm initial, final = 1.1726221e-05 9.4879445e-06
  Force max component initial, final = 6.3641687e-06 3.5654493e-06
  Final line search alpha, max atom move = 1 3.5654493e-06
  Iterations, force evaluations = 1 2

MPI task timing breakdown:
Section |  min time  |  avg time  |  max time  |%varavg| %total
---------------------------------------------------------------
Pair    | 9.6691e-05 | 9.6691e-05 | 9.6691e-05 |   0.0 | 17.67
Neigh   | 0          | 0          | 0          |   0.0 |  0.00
Comm    | 2.636e-06  | 2.636e-06  | 2.636e-06  |   0.0 |  0.48
Output  | 0          | 0          | 0          |   0.0 |  0.00
Modify  | 0          | 0          | 0          |   0.0 |  0.00
Other   |            | 0.0004479  |            |       | 81.85

Nlocal:             32 ave          32 max          32 min
Histogram: 1 0 0 0 0 0 0 0 0 0
Nghost:             81 ave          81 max          81 min
Histogram: 1 0 0 0 0 0 0 0 0 0
Neighs:              0 ave           0 max           0 min
Histogram: 1 0 0 0 0 0 0 0 0 0
FullNghs:          576 ave         576 max         576 min
Histogram: 1 0 0 0 0 0 0 0 0 0

Total # of neighbors = 576
Ave neighs/atom = 18
Neighbor list builds = 0
Dangerous builds = 0

# Minimize the with fire
  unfix           frb
  min_style       fire
  minimize        0.0 1.0e-3 10000 10000
  Parameters for fire:
    dmax  delaystep dtgrow dtshrink alpha0 alphashrink tmax tmin   integrator   halfstepback   abcfire  
     0.1     20      1.1     0.5     0.25     0.99      10  0.02 eulerimplicit      yes          no     
Per MPI rank memory allocation (min/avg/max) = 3.077 | 3.077 | 3.077 Mbytes
   Step          Temp          PotEng           Lx             Ly             Lz            Pxx            Pyy            Pzz            Fmax          Fnorm     
       151                     0   -255.2864595628647    9.968195766462397    8.632710780855282        49.9812277894 -0.001328170768289455 -0.00129311814950837 -2.880569524092067e-14 1.471800455732364e-06 7.45620778448758e-06
       152  5.572650878426338e-12   -255.2864595628645    9.968195766462397    8.632710780855282        49.9812277894 -0.001259174463006733 -0.001362114411107362 -2.836885699266929e-14 1.338431935948847e-06 6.708015013718002e-06
Loop time of 0.000588925 on 1 procs for 1 steps with 32 atoms

0.0% CPU use with 1 MPI tasks x no OpenMP threads

Minimization stats:
  Stopping criterion = force tolerance
  Energy initial, next-to-last, final = 
     -255.286459562865  -255.286459562865  -255.286459562864
  Force two-norm initial, final = 7.4562078e-06 6.708015e-06
  Force max component initial, final = 1.4718005e-06 1.3384319e-06
  Final line search alpha, max atom move = 0 0
  Iterations, force evaluations = 1 2

MPI task timing breakdown:
Section |  min time  |  avg time  |  max time  |%varavg| %total
---------------------------------------------------------------
Pair    | 8.4726e-05 | 8.4726e-05 | 8.4726e-05 |   0.0 | 14.39
Neigh   | 0          | 0          | 0          |   0.0 |  0.00
Comm    | 2.294e-06  | 2.294e-06  | 2.294e-06  |   0.0 |  0.39
Output  | 0          | 0          | 0          |   0.0 |  0.00
Modify  | 0          | 0          | 0          |   0.0 |  0.00
Other   |            | 0.0005019  |            |       | 85.22

Nlocal:             32 ave          32 max          32 min
Histogram: 1 0 0 0 0 0 0 0 0 0
Nghost:             81 ave          81 max          81 min
Histogram: 1 0 0 0 0 0 0 0 0 0
Neighs:              0 ave           0 max           0 min
Histogram: 1 0 0 0 0 0 0 0 0 0
FullNghs:          576 ave         576 max         576 min
Histogram: 1 0 0 0 0 0 0 0 0 0

Total # of neighbors = 576
Ave neighs/atom = 18
Neighbor list builds = 0
Dangerous builds = 0

next nr
jump ${simname}.in loopmin
jump Tersoff.in loopmin

# Minimize the with cg + box/relax
  fix             frb all box/relax tri 0.0 couple none
  min_style       cg
  min_modify      line quadratic
  minimize        0.0 1.0e-3 10000 10000
WARNING: Energy due to 6 extra global DOFs will be included in minimizer energies
 (src/min.cpp:225)
Per MPI rank memory allocation (min/avg/max) = 4.202 | 4.202 | 4.202 Mbytes
   Step          Temp          PotEng           Lx             Ly             Lz            Pxx            Pyy            Pzz            Fmax          Fnorm     
       152  5.572650878426338e-12   -255.2864595628646    9.968195766462397    8.632710780855282        49.9812277894 -0.001259174448283611 -0.001362114574178347 -2.836905912876529e-14 1.338431719233313e-06 6.708014745800081e-06
       153  5.572650878426338e-12   -255.2864595628648    9.968195732357028    8.632710748904527        49.9812277894 0.001417523358538437 0.001369901972825259 -2.801199824004904e-14 1.085614265150525e-06 5.323067560587173e-06
Loop time of 0.000482784 on 1 procs for 1 steps with 32 atoms

0.0% CPU use with 1 MPI tasks x no OpenMP threads

Minimization stats:
  Stopping criterion = force tolerance
  Energy initial, next-to-last, final = 
     -255.286459562865  -255.286459562865  -255.286459562865
  Force two-norm initial, final = 8.6619507e-06 8.5492046e-06
  Force max component initial, final = 3.6565705e-06 4.0926284e-06
  Final line search alpha, max atom move = 1 4.0926284e-06
  Iterations, force evaluations = 1 2

MPI task timing breakdown:
Section |  min time  |  avg time  |  max time  |%varavg| %total
---------------------------------------------------------------
Pair    | 8.1749e-05 | 8.1749e-05 | 8.1749e-05 |   0.0 | 16.93
Neigh   | 0          | 0          | 0          |   0.0 |  0.00
Comm    | 2.214e-06  | 2.214e-06  | 2.214e-06  |   0.0 |  0.46
Output  | 0          | 0          | 0          |   0.0 |  0.00
Modify  | 0          | 0          | 0          |   0.0 |  0.00
Other   |            | 0.0003988  |            |       | 82.61

Nlocal:             32 ave          32 max          32 min
Histogram: 1 0 0 0 0 0 0 0 0 0
Nghost:             81 ave          81 max          81 min
Histogram: 1 0 0 0 0 0 0 0 0 0
Neighs:              0 ave           0 max           0 min
Histogram: 1 0 0 0 0 0 0 0 0 0
FullNghs:          576 ave         576 max         576 min
Histogram: 1 0 0 0 0 0 0 0 0 0

Total # of neighbors = 576
Ave neighs/atom = 18
Neighbor list builds = 0
Dangerous builds = 0

# Minimize the with fire
  unfix           frb
  min_style       fire
  minimize        0.0 1.0e-3 10000 10000
  Parameters for fire:
    dmax  delaystep dtgrow dtshrink alpha0 alphashrink tmax tmin   integrator   halfstepback   abcfire  
     0.1     20      1.1     0.5     0.25     0.99      10  0.02 eulerimplicit      yes          no     
Per MPI rank memory allocation (min/avg/max) = 3.077 | 3.077 | 3.077 Mbytes
   Step          Temp          PotEng           Lx             Ly             Lz            Pxx            Pyy            Pzz            Fmax          Fnorm     
       153                     0   -255.2864595628646    9.968195732357028    8.632710748904527        49.9812277894 0.001417523565318753 0.001369901890229622 -2.815799222807153e-14 1.085614201201679e-06 5.323067459587223e-06
       154  2.840205498596701e-12   -255.2864595628647    9.968195732357028    8.632710748904527        49.9812277894 0.001472900556615453 0.001314524916158829 -2.774405977086588e-14 9.904884805678194e-07 4.792425893969717e-06
Loop time of 0.000537229 on 1 procs for 1 steps with 32 atoms

0.0% CPU use with 1 MPI tasks x no OpenMP threads

Minimization stats:
  Stopping criterion = force tolerance
  Energy initial, next-to-last, final = 
     -255.286459562865  -255.286459562865  -255.286459562865
  Force two-norm initial, final = 5.3230675e-06 4.7924259e-06
  Force max component initial, final = 1.0856142e-06 9.9048848e-07
  Final line search alpha, max atom move = 0 0
  Iterations, force evaluations = 1 2

MPI task timing breakdown:
Section |  min time  |  avg time  |  max time  |%varavg| %total
---------------------------------------------------------------
Pair    | 8.7203e-05 | 8.7203e-05 | 8.7203e-05 |   0.0 | 16.23
Neigh   | 0          | 0          | 0          |   0.0 |  0.00
Comm    | 2.26e-06   | 2.26e-06   | 2.26e-06   |   0.0 |  0.42
Output  | 0          | 0          | 0          |   0.0 |  0.00
Modify  | 0          | 0          | 0          |   0.0 |  0.00
Other   |            | 0.0004478  |            |       | 83.35

Nlocal:             32 ave          32 max          32 min
Histogram: 1 0 0 0 0 0 0 0 0 0
Nghost:             81 ave          81 max          81 min
Histogram: 1 0 0 0 0 0 0 0 0 0
Neighs:              0 ave           0 max           0 min
Histogram: 1 0 0 0 0 0 0 0 0 0
FullNghs:          576 ave         576 max         576 min
Histogram: 1 0 0 0 0 0 0 0 0 0

Total # of neighbors = 576
Ave neighs/atom = 18
Neighbor list builds = 0
Dangerous builds = 0

next nr
jump ${simname}.in loopmin
jump Tersoff.in loopmin

# Minimize the with cg + box/relax
  fix             frb all box/relax tri 0.0 couple none
  min_style       cg
  min_modify      line quadratic
  minimize        0.0 1.0e-3 10000 10000
WARNING: Energy due to 6 extra global DOFs will be included in minimizer energies
 (src/min.cpp:225)
Per MPI rank memory allocation (min/avg/max) = 4.202 | 4.202 | 4.202 Mbytes
   Step          Temp          PotEng           Lx             Ly             Lz            Pxx            Pyy            Pzz            Fmax          Fnorm     
       154  2.840205498596701e-12   -255.2864595628648    9.968195732357028    8.632710748904527        49.9812277894 0.001472900573158287 0.001314524817191325 -2.774368014941457e-14 9.904885160949561e-07 4.792425632372949e-06
       155  2.840205498596701e-12   -255.2864595628647    9.968195762693494    8.632710772351727        49.9812277894 -0.0007899754522280701 -0.0007961794081678566 -2.748521201440883e-14 1.036945462828953e-06 5.040340694111015e-06
Loop time of 0.00060046 on 1 procs for 1 steps with 32 atoms

0.0% CPU use with 1 MPI tasks x no OpenMP threads

Minimization stats:
  Stopping criterion = force tolerance
  Energy initial, next-to-last, final = 
     -255.286459562865  -255.286459562865  -255.286459562865
  Force two-norm initial, final = 8.5362489e-06 6.1289322e-06
  Force max component initial, final = 4.6705191e-06 2.1373284e-06
  Final line search alpha, max atom move = 1 2.1373284e-06
  Iterations, force evaluations = 1 2

MPI task timing breakdown:
Section |  min time  |  avg time  |  max time  |%varavg| %total
---------------------------------------------------------------
Pair    | 8.1858e-05 | 8.1858e-05 | 8.1858e-05 |   0.0 | 13.63
Neigh   | 0          | 0          | 0          |   0.0 |  0.00
Comm    | 2.763e-06  | 2.763e-06  | 2.763e-06  |   0.0 |  0.46
Output  | 0          | 0          | 0          |   0.0 |  0.00
Modify  | 0          | 0          | 0          |   0.0 |  0.00
Other   |            | 0.0005158  |            |       | 85.91

Nlocal:             32 ave          32 max          32 min
Histogram: 1 0 0 0 0 0 0 0 0 0
Nghost:             81 ave          81 max          81 min
Histogram: 1 0 0 0 0 0 0 0 0 0
Neighs:              0 ave           0 max           0 min
Histogram: 1 0 0 0 0 0 0 0 0 0
FullNghs:          576 ave         576 max         576 min
Histogram: 1 0 0 0 0 0 0 0 0 0

Total # of neighbors = 576
Ave neighs/atom = 18
Neighbor list builds = 0
Dangerous builds = 0

# Minimize the with fire
  unfix           frb
  min_style       fire
  minimize        0.0 1.0e-3 10000 10000
  Parameters for fire:
    dmax  delaystep dtgrow dtshrink alpha0 alphashrink tmax tmin   integrator   halfstepback   abcfire  
     0.1     20      1.1     0.5     0.25     0.99      10  0.02 eulerimplicit      yes          no     
Per MPI rank memory allocation (min/avg/max) = 3.077 | 3.077 | 3.077 Mbytes
   Step          Temp          PotEng           Lx             Ly             Lz            Pxx            Pyy            Pzz            Fmax          Fnorm     
       155                     0   -255.2864595628649    9.968195762693494    8.632710772351727        49.9812277894 -0.0007899756247728636 -0.0007961795628823559 -2.762359352880143e-14 1.036945342036688e-06 5.040340396895575e-06
       156  2.546511036580297e-12   -255.2864595628648    9.968195762693494    8.632710772351727        49.9812277894 -0.0007435417115209939 -0.0008426132156749022 -2.722647683878975e-14 9.460560654872552e-07 4.53802348068724e-06
Loop time of 0.000597623 on 1 procs for 1 steps with 32 atoms

7.7% CPU use with 1 MPI tasks x no OpenMP threads

Minimization stats:
  Stopping criterion = force tolerance
  Energy initial, next-to-last, final = 
     -255.286459562865  -255.286459562865  -255.286459562865
  Force two-norm initial, final = 5.0403404e-06 4.5380235e-06
  Force max component initial, final = 1.0369453e-06 9.4605607e-07
  Final line search alpha, max atom move = 0 0
  Iterations, force evaluations = 1 2

MPI task timing breakdown:
Section |  min time  |  avg time  |  max time  |%varavg| %total
---------------------------------------------------------------
Pair    | 8.3818e-05 | 8.3818e-05 | 8.3818e-05 |   0.0 | 14.03
Neigh   | 0          | 0          | 0          |   0.0 |  0.00
Comm    | 2.194e-06  | 2.194e-06  | 2.194e-06  |   0.0 |  0.37
Output  | 0          | 0          | 0          |   0.0 |  0.00
Modify  | 0          | 0          | 0          |   0.0 |  0.00
Other   |            | 0.0005116  |            |       | 85.61

Nlocal:             32 ave          32 max          32 min
Histogram: 1 0 0 0 0 0 0 0 0 0
Nghost:             81 ave          81 max          81 min
Histogram: 1 0 0 0 0 0 0 0 0 0
Neighs:              0 ave           0 max           0 min
Histogram: 1 0 0 0 0 0 0 0 0 0
FullNghs:          576 ave         576 max         576 min
Histogram: 1 0 0 0 0 0 0 0 0 0

Total # of neighbors = 576
Ave neighs/atom = 18
Neighbor list builds = 0
Dangerous builds = 0

next nr
jump ${simname}.in loopmin
jump Tersoff.in loopmin

# Minimize the with cg + box/relax
  fix             frb all box/relax tri 0.0 couple none
  min_style       cg
  min_modify      line quadratic
  minimize        0.0 1.0e-3 10000 10000
WARNING: Energy due to 6 extra global DOFs will be included in minimizer energies
 (src/min.cpp:225)
Per MPI rank memory allocation (min/avg/max) = 4.202 | 4.202 | 4.202 Mbytes
   Step          Temp          PotEng           Lx             Ly             Lz            Pxx            Pyy            Pzz            Fmax          Fnorm     
       156  2.546511036580297e-12    -255.286459562865    9.968195762693494    8.632710772351727        49.9812277894 -0.0007435418452698061 -0.0008426131111655491 -2.722638809611334e-14 9.46055912720567e-07 4.538023312337481e-06
       157  2.546511036580297e-12   -255.2864595628649    9.968195739512254    8.632710749601271        49.9812277894 0.001083387720713661 0.001097661301019636 -2.685127293609754e-14 7.624687938800889e-07 3.547839687930238e-06
Loop time of 0.000902904 on 1 procs for 1 steps with 32 atoms

5.4% CPU use with 1 MPI tasks x no OpenMP threads

Minimization stats:
  Stopping criterion = force tolerance
  Energy initial, next-to-last, final = 
     -255.286459562865  -255.286459562865  -255.286459562865
  Force two-norm initial, final = 5.5812167e-06 6.2187312e-06
  Force max component initial, final = 2.2619788e-06 2.9907016e-06
  Final line search alpha, max atom move = 1 2.9907016e-06
  Iterations, force evaluations = 1 2

MPI task timing breakdown:
Section |  min time  |  avg time  |  max time  |%varavg| %total
---------------------------------------------------------------
Pair    | 8.3887e-05 | 8.3887e-05 | 8.3887e-05 |   0.0 |  9.29
Neigh   | 0          | 0          | 0          |   0.0 |  0.00
Comm    | 2.077e-06  | 2.077e-06  | 2.077e-06  |   0.0 |  0.23
Output  | 0          | 0          | 0          |   0.0 |  0.00
Modify  | 0          | 0          | 0          |   0.0 |  0.00
Other   |            | 0.0008169  |            |       | 90.48

Nlocal:             32 ave          32 max          32 min
Histogram: 1 0 0 0 0 0 0 0 0 0
Nghost:             81 ave          81 max          81 min
Histogram: 1 0 0 0 0 0 0 0 0 0
Neighs:              0 ave           0 max           0 min
Histogram: 1 0 0 0 0 0 0 0 0 0
FullNghs:          576 ave         576 max         576 min
Histogram: 1 0 0 0 0 0 0 0 0 0

Total # of neighbors = 576
Ave neighs/atom = 18
Neighbor list builds = 0
Dangerous builds = 0

# Minimize the with fire
  unfix           frb
  min_style       fire
  minimize        0.0 1.0e-3 10000 10000
  Parameters for fire:
    dmax  delaystep dtgrow dtshrink alpha0 alphashrink tmax tmin   integrator   halfstepback   abcfire  
     0.1     20      1.1     0.5     0.25     0.99      10  0.02 eulerimplicit      yes          no     
Per MPI rank memory allocation (min/avg/max) = 3.077 | 3.077 | 3.077 Mbytes
   Step          Temp          PotEng           Lx             Ly             Lz            Pxx            Pyy            Pzz            Fmax          Fnorm     
       157                     0    -255.286459562865    9.968195739512254    8.632710749601271        49.9812277894 0.001083387777792309 0.001097661044379971 -2.698419774892122e-14 7.624686588769691e-07 3.547839267513042e-06
       158  1.261693067006019e-12   -255.2864595628648    9.968195739512254    8.632710749601271        49.9812277894 0.001120404753984212 0.001060644306428537 -2.660655326233482e-14 6.98539679433452e-07 3.198646132637212e-06
Loop time of 0.00047229 on 1 procs for 1 steps with 32 atoms

11.6% CPU use with 1 MPI tasks x no OpenMP threads

Minimization stats:
  Stopping criterion = force tolerance
  Energy initial, next-to-last, final = 
     -255.286459562865  -255.286459562865  -255.286459562865
  Force two-norm initial, final = 3.5478393e-06 3.1986461e-06
  Force max component initial, final = 7.6246866e-07 6.9853968e-07
  Final line search alpha, max atom move = 0 0
  Iterations, force evaluations = 1 2

MPI task timing breakdown:
Section |  min time  |  avg time  |  max time  |%varavg| %total
---------------------------------------------------------------
Pair    | 0.0001131  | 0.0001131  | 0.0001131  |   0.0 | 23.95
Neigh   | 0          | 0          | 0          |   0.0 |  0.00
Comm    | 3.082e-06  | 3.082e-06  | 3.082e-06  |   0.0 |  0.65
Output  | 0          | 0          | 0          |   0.0 |  0.00
Modify  | 0          | 0          | 0          |   0.0 |  0.00
Other   |            | 0.0003561  |            |       | 75.40

Nlocal:             32 ave          32 max          32 min
Histogram: 1 0 0 0 0 0 0 0 0 0
Nghost:             81 ave          81 max          81 min
Histogram: 1 0 0 0 0 0 0 0 0 0
Neighs:              0 ave           0 max           0 min
Histogram: 1 0 0 0 0 0 0 0 0 0
FullNghs:          576 ave         576 max         576 min
Histogram: 1 0 0 0 0 0 0 0 0 0

Total # of neighbors = 576
Ave neighs/atom = 18
Neighbor list builds = 0
Dangerous builds = 0

next nr
jump ${simname}.in loopmin
jump Tersoff.in loopmin

# Minimize the with cg + box/relax
  fix             frb all box/relax tri 0.0 couple none
  min_style       cg
  min_modify      line quadratic
  minimize        0.0 1.0e-3 10000 10000
WARNING: Energy due to 6 extra global DOFs will be included in minimizer energies
 (src/min.cpp:225)
Per MPI rank memory allocation (min/avg/max) = 4.202 | 4.202 | 4.202 Mbytes
   Step          Temp          PotEng           Lx             Ly             Lz            Pxx            Pyy            Pzz            Fmax          Fnorm     
       158  1.261693067006019e-12   -255.2864595628647    9.968195739512254    8.632710749601271        49.9812277894 0.001120404785126097 0.001060644291333201 -2.660631168504781e-14 6.985396368008878e-07 3.198646025683793e-06
       159  1.261693067006019e-12   -255.2864595628648    9.968195760670191     8.63271076694725        49.9812277894 -0.0004620199361916901 -0.0004945927272702896 -2.638903992216836e-14 7.343548666938204e-07 3.38930689129143e-06
Loop time of 0.000577228 on 1 procs for 1 steps with 32 atoms

8.7% CPU use with 1 MPI tasks x no OpenMP threads

Minimization stats:
  Stopping criterion = force tolerance
  Energy initial, next-to-last, final = 
     -255.286459562865  -255.286459562865  -255.286459562865
  Force two-norm initial, final = 6.2255923e-06 3.9697391e-06
  Force max component initial, final = 3.3724432e-06 1.3277247e-06
  Final line search alpha, max atom move = 1 1.3277247e-06
  Iterations, force evaluations = 1 2

MPI task timing breakdown:
Section |  min time  |  avg time  |  max time  |%varavg| %total
---------------------------------------------------------------
Pair    | 9.3261e-05 | 9.3261e-05 | 9.3261e-05 |   0.0 | 16.16
Neigh   | 0          | 0          | 0          |   0.0 |  0.00
Comm    | 2.741e-06  | 2.741e-06  | 2.741e-06  |   0.0 |  0.47
Output  | 0          | 0          | 0          |   0.0 |  0.00
Modify  | 0          | 0          | 0          |   0.0 |  0.00
Other   |            | 0.0004812  |            |       | 83.37

Nlocal:             32 ave          32 max          32 min
Histogram: 1 0 0 0 0 0 0 0 0 0
Nghost:             81 ave          81 max          81 min
Histogram: 1 0 0 0 0 0 0 0 0 0
Neighs:              0 ave           0 max           0 min
Histogram: 1 0 0 0 0 0 0 0 0 0
FullNghs:          576 ave         576 max         576 min
Histogram: 1 0 0 0 0 0 0 0 0 0

Total # of neighbors = 576
Ave neighs/atom = 18
Neighbor list builds = 0
Dangerous builds = 0

# Minimize the with fire
  unfix           frb
  min_style       fire
  minimize        0.0 1.0e-3 10000 10000
  Parameters for fire:
    dmax  delaystep dtgrow dtshrink alpha0 alphashrink tmax tmin   integrator   halfstepback   abcfire  
     0.1     20      1.1     0.5     0.25     0.99      10  0.02 eulerimplicit      yes          no     
Per MPI rank memory allocation (min/avg/max) = 3.077 | 3.077 | 3.077 Mbytes
   Step          Temp          PotEng           Lx             Ly             Lz            Pxx            Pyy            Pzz            Fmax          Fnorm     
       159                     0   -255.2864595628649    9.968195760670191     8.63271076694725        49.9812277894 -0.0004620197710302712 -0.00049459286660719 -2.651573983866876e-14 7.343547778759785e-07 3.389307073159896e-06
       160  1.151456766644446e-12    -255.286459562865    9.968195760670191     8.63271076694725        49.9812277894 -0.0004311927055939335 -0.0005254199941157645 -2.615064182167673e-14 6.726798709166815e-07 3.055757757733934e-06
Loop time of 0.00070561 on 1 procs for 1 steps with 32 atoms

6.7% CPU use with 1 MPI tasks x no OpenMP threads

Minimization stats:
  Stopping criterion = force tolerance
  Energy initial, next-to-last, final = 
     -255.286459562865  -255.286459562865  -255.286459562865
  Force two-norm initial, final = 3.3893071e-06 3.0557578e-06
  Force max component initial, final = 7.3435478e-07 6.7267987e-07
  Final line search alpha, max atom move = 0 0
  Iterations, force evaluations = 1 2

MPI task timing breakdown:
Section |  min time  |  avg time  |  max time  |%varavg| %total
---------------------------------------------------------------
Pair    | 9.2557e-05 | 9.2557e-05 | 9.2557e-05 |   0.0 | 13.12
Neigh   | 0          | 0          | 0          |   0.0 |  0.00
Comm    | 2.446e-06  | 2.446e-06  | 2.446e-06  |   0.0 |  0.35
Output  | 0          | 0          | 0          |   0.0 |  0.00
Modify  | 0          | 0          | 0          |   0.0 |  0.00
Other   |            | 0.0006106  |            |       | 86.54

Nlocal:             32 ave          32 max          32 min
Histogram: 1 0 0 0 0 0 0 0 0 0
Nghost:             81 ave          81 max          81 min
Histogram: 1 0 0 0 0 0 0 0 0 0
Neighs:              0 ave           0 max           0 min
Histogram: 1 0 0 0 0 0 0 0 0 0
FullNghs:          576 ave         576 max         576 min
Histogram: 1 0 0 0 0 0 0 0 0 0

Total # of neighbors = 576
Ave neighs/atom = 18
Neighbor list builds = 0
Dangerous builds = 0

next nr
jump ${simname}.in loopmin
jump Tersoff.in loopmin

# Minimize the with cg + box/relax
  fix             frb all box/relax tri 0.0 couple none
  min_style       cg
  min_modify      line quadratic
  minimize        0.0 1.0e-3 10000 10000
WARNING: Energy due to 6 extra global DOFs will be included in minimizer energies
 (src/min.cpp:225)
Per MPI rank memory allocation (min/avg/max) = 4.202 | 4.202 | 4.202 Mbytes
   Step          Temp          PotEng           Lx             Ly             Lz            Pxx            Pyy            Pzz            Fmax          Fnorm     
       160  1.151456766644446e-12   -255.2864595628648    9.968195760670191     8.63271076694725        49.9812277894 -0.0004311925679161983 -0.0005254199433292645 -2.615071084375844e-14 6.726797927569805e-07 3.055757661051695e-06
       161  1.151456766644446e-12   -255.2864595628648     9.96819574502841    8.632710750440859        49.9812277894 0.0008076552781625097 0.000879317062612951 -2.574921934435154e-14 5.378603624706102e-07 2.347080060972652e-06
Loop time of 0.000544177 on 1 procs for 1 steps with 32 atoms

9.7% CPU use with 1 MPI tasks x no OpenMP threads

Minimization stats:
  Stopping criterion = force tolerance
  Energy initial, next-to-last, final = 
     -255.286459562865  -255.286459562865  -255.286459562865
  Force two-norm initial, final = 3.6120594e-06 4.5105292e-06
  Force max component initial, final = 1.4104798e-06 2.3605098e-06
  Final line search alpha, max atom move = 1 2.3605098e-06
  Iterations, force evaluations = 1 2

MPI task timing breakdown:
Section |  min time  |  avg time  |  max time  |%varavg| %total
---------------------------------------------------------------
Pair    | 0.00010851 | 0.00010851 | 0.00010851 |   0.0 | 19.94
Neigh   | 0          | 0          | 0          |   0.0 |  0.00
Comm    | 2.872e-06  | 2.872e-06  | 2.872e-06  |   0.0 |  0.53
Output  | 0          | 0          | 0          |   0.0 |  0.00
Modify  | 0          | 0          | 0          |   0.0 |  0.00
Other   |            | 0.0004328  |            |       | 79.53

Nlocal:             32 ave          32 max          32 min
Histogram: 1 0 0 0 0 0 0 0 0 0
Nghost:             81 ave          81 max          81 min
Histogram: 1 0 0 0 0 0 0 0 0 0
Neighs:              0 ave           0 max           0 min
Histogram: 1 0 0 0 0 0 0 0 0 0
FullNghs:          576 ave         576 max         576 min
Histogram: 1 0 0 0 0 0 0 0 0 0

Total # of neighbors = 576
Ave neighs/atom = 18
Neighbor list builds = 0
Dangerous builds = 0

# Minimize the with fire
  unfix           frb
  min_style       fire
  minimize        0.0 1.0e-3 10000 10000
  Parameters for fire:
    dmax  delaystep dtgrow dtshrink alpha0 alphashrink tmax tmin   integrator   halfstepback   abcfire  
     0.1     20      1.1     0.5     0.25     0.99      10  0.02 eulerimplicit      yes          no     
Per MPI rank memory allocation (min/avg/max) = 3.077 | 3.077 | 3.077 Mbytes
   Step          Temp          PotEng           Lx             Ly             Lz            Pxx            Pyy            Pzz            Fmax          Fnorm     
       161                     0    -255.286459562865     9.96819574502841    8.632710750440859        49.9812277894 0.0008076550689435906 0.0008793170431844787 -2.587147795769654e-14 5.378603553651828e-07 2.34708020747438e-06
       162  5.521812643460201e-13   -255.2864595628649     9.96819574502841    8.632710750440859        49.9812277894 0.0008321894484197814 0.000854783220658208 -2.552357214076417e-14 4.952684236059213e-07 2.121586422441146e-06
Loop time of 0.000607586 on 1 procs for 1 steps with 32 atoms

9.2% CPU use with 1 MPI tasks x no OpenMP threads

Minimization stats:
  Stopping criterion = force tolerance
  Energy initial, next-to-last, final = 
     -255.286459562865  -255.286459562865  -255.286459562865
  Force two-norm initial, final = 2.3470802e-06 2.1215864e-06
  Force max component initial, final = 5.3786036e-07 4.9526842e-07
  Final line search alpha, max atom move = 0 0
  Iterations, force evaluations = 1 2

MPI task timing breakdown:
Section |  min time  |  avg time  |  max time  |%varavg| %total
---------------------------------------------------------------
Pair    | 0.00011494 | 0.00011494 | 0.00011494 |   0.0 | 18.92
Neigh   | 0          | 0          | 0          |   0.0 |  0.00
Comm    | 2.852e-06  | 2.852e-06  | 2.852e-06  |   0.0 |  0.47
Output  | 0          | 0          | 0          |   0.0 |  0.00
Modify  | 0          | 0          | 0          |   0.0 |  0.00
Other   |            | 0.0004898  |            |       | 80.61

Nlocal:             32 ave          32 max          32 min
Histogram: 1 0 0 0 0 0 0 0 0 0
Nghost:             81 ave          81 max          81 min
Histogram: 1 0 0 0 0 0 0 0 0 0
Neighs:              0 ave           0 max           0 min
Histogram: 1 0 0 0 0 0 0 0 0 0
FullNghs:          576 ave         576 max         576 min
Histogram: 1 0 0 0 0 0 0 0 0 0

Total # of neighbors = 576
Ave neighs/atom = 18
Neighbor list builds = 0
Dangerous builds = 0

next nr
jump ${simname}.in loopmin
jump Tersoff.in loopmin

# Minimize the with cg + box/relax
  fix             frb all box/relax tri 0.0 couple none
  min_style       cg
  min_modify      line quadratic
  minimize        0.0 1.0e-3 10000 10000
WARNING: Energy due to 6 extra global DOFs will be included in minimizer energies
 (src/min.cpp:225)
Per MPI rank memory allocation (min/avg/max) = 4.202 | 4.202 | 4.202 Mbytes
   Step          Temp          PotEng           Lx             Ly             Lz            Pxx            Pyy            Pzz            Fmax          Fnorm     
       162  5.521812643460201e-13    -255.286459562865     9.96819574502841    8.632710750440859        49.9812277894 0.000832189352719487 0.0008547831779776964 -2.552373483567164e-14 4.95268338340793e-07 2.121586285261819e-06
       163  5.521812643460201e-13   -255.2864595628648    9.968195759657519    8.632710763454005        49.9812277894 -0.0002642846782983817 -0.0003078981540405003 -2.533712370142668e-14 5.215994924867573e-07 2.258647787953917e-06
Loop time of 0.000497913 on 1 procs for 1 steps with 32 atoms

44.6% CPU use with 1 MPI tasks x no OpenMP threads

Minimization stats:
  Stopping criterion = force tolerance
  Energy initial, next-to-last, final = 
     -255.286459562865  -255.286459562865  -255.286459562865
  Force two-norm initial, final = 4.5214216e-06 2.566587e-06
  Force max component initial, final = 2.3845274e-06 8.265467e-07
  Final line search alpha, max atom move = 1 8.265467e-07
  Iterations, force evaluations = 1 2

MPI task timing breakdown:
Section |  min time  |  avg time  |  max time  |%varavg| %total
---------------------------------------------------------------
Pair    | 0.00010239 | 0.00010239 | 0.00010239 |   0.0 | 20.56
Neigh   | 0          | 0          | 0          |   0.0 |  0.00
Comm    | 3.296e-06  | 3.296e-06  | 3.296e-06  |   0.0 |  0.66
Output  | 0          | 0          | 0          |   0.0 |  0.00
Modify  | 0          | 0          | 0          |   0.0 |  0.00
Other   |            | 0.0003922  |            |       | 78.77

Nlocal:             32 ave          32 max          32 min
Histogram: 1 0 0 0 0 0 0 0 0 0
Nghost:             81 ave          81 max          81 min
Histogram: 1 0 0 0 0 0 0 0 0 0
Neighs:              0 ave           0 max           0 min
Histogram: 1 0 0 0 0 0 0 0 0 0
FullNghs:          576 ave         576 max         576 min
Histogram: 1 0 0 0 0 0 0 0 0 0

Total # of neighbors = 576
Ave neighs/atom = 18
Neighbor list builds = 0
Dangerous builds = 0

# Minimize the with fire
  unfix           frb
  min_style       fire
  minimize        0.0 1.0e-3 10000 10000
  Parameters for fire:
    dmax  delaystep dtgrow dtshrink alpha0 alphashrink tmax tmin   integrator   halfstepback   abcfire  
     0.1     20      1.1     0.5     0.25     0.99      10  0.02 eulerimplicit      yes          no     
Per MPI rank memory allocation (min/avg/max) = 3.077 | 3.077 | 3.077 Mbytes
   Step          Temp          PotEng           Lx             Ly             Lz            Pxx            Pyy            Pzz            Fmax          Fnorm     
       163                     0   -255.2864595628649    9.968195759657519    8.632710763454005        49.9812277894 -0.0002642844860118774 -0.0003078984044277663 -2.545369708018611e-14 5.215993397200691e-07 2.258647855150199e-06
       164  5.113554256041133e-13   -255.2864595628652    9.968195759657519    8.632710763454005        49.9812277894 -0.0002442398679545793 -0.0003279431480695996 -2.511632945388252e-14 4.801434414503092e-07 2.041565009065359e-06
Loop time of 0.000420568 on 1 procs for 1 steps with 32 atoms

49.5% CPU use with 1 MPI tasks x no OpenMP threads

Minimization stats:
  Stopping criterion = force tolerance
  Energy initial, next-to-last, final = 
     -255.286459562865  -255.286459562865  -255.286459562865
  Force two-norm initial, final = 2.2586479e-06 2.041565e-06
  Force max component initial, final = 5.2159934e-07 4.8014344e-07
  Final line search alpha, max atom move = 0 0
  Iterations, force evaluations = 1 2

MPI task timing breakdown:
Section |  min time  |  avg time  |  max time  |%varavg| %total
---------------------------------------------------------------
Pair    | 0.00010556 | 0.00010556 | 0.00010556 |   0.0 | 25.10
Neigh   | 0          | 0          | 0          |   0.0 |  0.00
Comm    | 2.65e-06   | 2.65e-06   | 2.65e-06   |   0.0 |  0.63
Output  | 0          | 0          | 0          |   0.0 |  0.00
Modify  | 0          | 0          | 0          |   0.0 |  0.00
Other   |            | 0.0003124  |            |       | 74.27

Nlocal:             32 ave          32 max          32 min
Histogram: 1 0 0 0 0 0 0 0 0 0
Nghost:             81 ave          81 max          81 min
Histogram: 1 0 0 0 0 0 0 0 0 0
Neighs:              0 ave           0 max           0 min
Histogram: 1 0 0 0 0 0 0 0 0 0
FullNghs:          576 ave         576 max         576 min
Histogram: 1 0 0 0 0 0 0 0 0 0

Total # of neighbors = 576
Ave neighs/atom = 18
Neighbor list builds = 0
Dangerous builds = 0

next nr
jump ${simname}.in loopmin
jump Tersoff.in loopmin

# Minimize the with cg + box/relax
  fix             frb all box/relax tri 0.0 couple none
  min_style       cg
  min_modify      line quadratic
  minimize        0.0 1.0e-3 10000 10000
WARNING: Energy due to 6 extra global DOFs will be included in minimizer energies
 (src/min.cpp:225)
Per MPI rank memory allocation (min/avg/max) = 4.202 | 4.202 | 4.202 Mbytes
   Step          Temp          PotEng           Lx             Ly             Lz            Pxx            Pyy            Pzz            Fmax          Fnorm     
       164  5.113554256041133e-13   -255.2864595628648    9.968195759657519    8.632710763454005        49.9812277894 -0.0002442393449528849 -0.0003279432924885398 -2.511633931417991e-14 4.80143377501463e-07 2.041564773481869e-06
       165  5.113554256041133e-13   -255.2864595628651    9.968195749272219    8.632710751377735        49.9812277894 0.0005830690239390432 0.0006981960209780339 -2.468133263433225e-14 3.806063411104788e-07 1.539466137250625e-06
Loop time of 0.000652562 on 1 procs for 1 steps with 32 atoms

35.6% CPU use with 1 MPI tasks x no OpenMP threads

Minimization stats:
  Stopping criterion = force tolerance
  Energy initial, next-to-last, final = 
     -255.286459562865  -255.286459562865  -255.286459562865
  Force two-norm initial, final = 2.3379283e-06 3.247116e-06
  Force max component initial, final = 8.8035749e-07 1.8742939e-06
  Final line search alpha, max atom move = 1 1.8742939e-06
  Iterations, force evaluations = 1 2

MPI task timing breakdown:
Section |  min time  |  avg time  |  max time  |%varavg| %total
---------------------------------------------------------------
Pair    | 0.00010025 | 0.00010025 | 0.00010025 |   0.0 | 15.36
Neigh   | 0          | 0          | 0          |   0.0 |  0.00
Comm    | 2.544e-06  | 2.544e-06  | 2.544e-06  |   0.0 |  0.39
Output  | 0          | 0          | 0          |   0.0 |  0.00
Modify  | 0          | 0          | 0          |   0.0 |  0.00
Other   |            | 0.0005498  |            |       | 84.25

Nlocal:             32 ave          32 max          32 min
Histogram: 1 0 0 0 0 0 0 0 0 0
Nghost:             81 ave          81 max          81 min
Histogram: 1 0 0 0 0 0 0 0 0 0
Neighs:              0 ave           0 max           0 min
Histogram: 1 0 0 0 0 0 0 0 0 0
FullNghs:          576 ave         576 max         576 min
Histogram: 1 0 0 0 0 0 0 0 0 0

Total # of neighbors = 576
Ave neighs/atom = 18
Neighbor list builds = 0
Dangerous builds = 0

# Minimize the with fire
  unfix           frb
  min_style       fire
  minimize        0.0 1.0e-3 10000 10000
  Parameters for fire:
    dmax  delaystep dtgrow dtshrink alpha0 alphashrink tmax tmin   integrator   halfstepback   abcfire  
     0.1     20      1.1     0.5     0.25     0.99      10  0.02 eulerimplicit      yes          no     
Per MPI rank memory allocation (min/avg/max) = 3.077 | 3.077 | 3.077 Mbytes
   Step          Temp          PotEng           Lx             Ly             Lz            Pxx            Pyy            Pzz            Fmax          Fnorm     
       165                     0    -255.286459562865    9.968195749272219    8.632710751377735        49.9812277894 0.000583069169442243 0.0006981960737858035 -2.479397915317489e-14 3.806063908484703e-07 1.539465984303311e-06
       166  2.37556004659047e-13   -255.2864595628651    9.968195749272219    8.632710751377735        49.9812277894 0.0005991018994468469 0.0006821636819227369 -2.44724302176982e-14 3.526258325337039e-07 1.398314437475049e-06
Loop time of 0.000553193 on 1 procs for 1 steps with 32 atoms

47.9% CPU use with 1 MPI tasks x no OpenMP threads

Minimization stats:
  Stopping criterion = force tolerance
  Energy initial, next-to-last, final = 
     -255.286459562865  -255.286459562865  -255.286459562865
  Force two-norm initial, final = 1.539466e-06 1.3983144e-06
  Force max component initial, final = 3.8060639e-07 3.5262583e-07
  Final line search alpha, max atom move = 0 0
  Iterations, force evaluations = 1 2

MPI task timing breakdown:
Section |  min time  |  avg time  |  max time  |%varavg| %total
---------------------------------------------------------------
Pair    | 0.00013181 | 0.00013181 | 0.00013181 |   0.0 | 23.83
Neigh   | 0          | 0          | 0          |   0.0 |  0.00
Comm    | 3.107e-06  | 3.107e-06  | 3.107e-06  |   0.0 |  0.56
Output  | 0          | 0          | 0          |   0.0 |  0.00
Modify  | 0          | 0          | 0          |   0.0 |  0.00
Other   |            | 0.0004183  |            |       | 75.61

Nlocal:             32 ave          32 max          32 min
Histogram: 1 0 0 0 0 0 0 0 0 0
Nghost:             81 ave          81 max          81 min
Histogram: 1 0 0 0 0 0 0 0 0 0
Neighs:              0 ave           0 max           0 min
Histogram: 1 0 0 0 0 0 0 0 0 0
FullNghs:          576 ave         576 max         576 min
[...]
Histogram: 1 0 0 0 0 0 0 0 0 0
FullNghs:          576 ave         576 max         576 min
Histogram: 1 0 0 0 0 0 0 0 0 0

Total # of neighbors = 576
Ave neighs/atom = 18
Neighbor list builds = 0
Dangerous builds = 0

# Minimize the with fire
  unfix           frb
  min_style       fire
  minimize        0.0 1.0e-3 10000 10000
  Parameters for fire:
    dmax  delaystep dtgrow dtshrink alpha0 alphashrink tmax tmin   integrator   halfstepback   abcfire  
     0.1     20      1.1     0.5     0.25     0.99      10  0.02 eulerimplicit      yes          no     
Per MPI rank memory allocation (min/avg/max) = 3.077 | 3.077 | 3.077 Mbytes
   Step          Temp          PotEng           Lx             Ly             Lz            Pxx            Pyy            Pzz            Fmax          Fnorm     
       329                     0   -255.2864595628651    9.968195759169809    8.632710757312372        49.9812277894 1.521116847191965e-06 3.701198170278317e-06 -6.267224748371132e-15 2.53731469491142e-09 5.02489832682349e-09
       330  2.530949959578904e-18    -255.286459562865    9.968195759169809    8.632710757312372        49.9812277894 1.533354160450303e-06 3.688468707710808e-06 -6.245508839146162e-15 2.530628013033373e-09 5.005466653604291e-09
Loop time of 0.000353657 on 1 procs for 1 steps with 32 atoms

42.1% CPU use with 1 MPI tasks x no OpenMP threads

Minimization stats:
  Stopping criterion = force tolerance
  Energy initial, next-to-last, final = 
     -255.286459562865  -255.286459562865  -255.286459562865
  Force two-norm initial, final = 5.0248983e-09 5.0054667e-09
  Force max component initial, final = 2.5373147e-09 2.530628e-09
  Final line search alpha, max atom move = 0 0
  Iterations, force evaluations = 1 2

MPI task timing breakdown:
Section |  min time  |  avg time  |  max time  |%varavg| %total
---------------------------------------------------------------
Pair    | 7.6951e-05 | 7.6951e-05 | 7.6951e-05 |   0.0 | 21.76
Neigh   | 0          | 0          | 0          |   0.0 |  0.00
Comm    | 1.808e-06  | 1.808e-06  | 1.808e-06  |   0.0 |  0.51
Output  | 0          | 0          | 0          |   0.0 |  0.00
Modify  | 0          | 0          | 0          |   0.0 |  0.00
Other   |            | 0.0002749  |            |       | 77.73

Nlocal:             32 ave          32 max          32 min
Histogram: 1 0 0 0 0 0 0 0 0 0
Nghost:             81 ave          81 max          81 min
Histogram: 1 0 0 0 0 0 0 0 0 0
Neighs:              0 ave           0 max           0 min
Histogram: 1 0 0 0 0 0 0 0 0 0
FullNghs:          576 ave         576 max         576 min
Histogram: 1 0 0 0 0 0 0 0 0 0

Total # of neighbors = 576
Ave neighs/atom = 18
Neighbor list builds = 0
Dangerous builds = 0

next nr
jump ${simname}.in loopmin
jump Tersoff.in loopmin

# Minimize the with cg + box/relax
  fix             frb all box/relax tri 0.0 couple none
  min_style       cg
  min_modify      line quadratic
  minimize        0.0 1.0e-3 10000 10000
WARNING: Energy due to 6 extra global DOFs will be included in minimizer energies
 (src/min.cpp:225)
Per MPI rank memory allocation (min/avg/max) = 4.202 | 4.202 | 4.202 Mbytes
   Step          Temp          PotEng           Lx             Ly             Lz            Pxx            Pyy            Pzz            Fmax          Fnorm     
       330  2.530949959578904e-18    -255.286459562865    9.968195759169809    8.632710757312372        49.9812277894  1.5335209949305e-06 3.688395609063375e-06 -6.245577861227966e-15 2.530628013033438e-09 5.005451434550684e-09
       331  2.530949959578904e-18    -255.286459562865    9.968195759193717    8.632710757362171        49.9812277894 -2.843990658803259e-07 -6.95374901836148e-07 -6.234938600281874e-15 2.525753540425735e-09 4.965874442269542e-09
Loop time of 0.000321123 on 1 procs for 1 steps with 32 atoms

48.6% CPU use with 1 MPI tasks x no OpenMP threads

Minimization stats:
  Stopping criterion = force tolerance
  Energy initial, next-to-last, final = 
     -255.286459562865  -255.286459562865  -255.286459562865
  Force two-norm initial, final = 1.2943377e-08 5.3887845e-09
  Force max component initial, final = 9.9014274e-09 2.5257535e-09
  Final line search alpha, max atom move = 1 2.5257535e-09
  Iterations, force evaluations = 1 2

MPI task timing breakdown:
Section |  min time  |  avg time  |  max time  |%varavg| %total
---------------------------------------------------------------
Pair    | 7.8164e-05 | 7.8164e-05 | 7.8164e-05 |   0.0 | 24.34
Neigh   | 0          | 0          | 0          |   0.0 |  0.00
Comm    | 2.055e-06  | 2.055e-06  | 2.055e-06  |   0.0 |  0.64
Output  | 0          | 0          | 0          |   0.0 |  0.00
Modify  | 0          | 0          | 0          |   0.0 |  0.00
Other   |            | 0.0002409  |            |       | 75.02

Nlocal:             32 ave          32 max          32 min
Histogram: 1 0 0 0 0 0 0 0 0 0
Nghost:             81 ave          81 max          81 min
Histogram: 1 0 0 0 0 0 0 0 0 0
Neighs:              0 ave           0 max           0 min
Histogram: 1 0 0 0 0 0 0 0 0 0
FullNghs:          576 ave         576 max         576 min
Histogram: 1 0 0 0 0 0 0 0 0 0

Total # of neighbors = 576
Ave neighs/atom = 18
Neighbor list builds = 0
Dangerous builds = 0

# Minimize the with fire
  unfix           frb
  min_style       fire
  minimize        0.0 1.0e-3 10000 10000
  Parameters for fire:
    dmax  delaystep dtgrow dtshrink alpha0 alphashrink tmax tmin   integrator   halfstepback   abcfire  
     0.1     20      1.1     0.5     0.25     0.99      10  0.02 eulerimplicit      yes          no     
Per MPI rank memory allocation (min/avg/max) = 3.077 | 3.077 | 3.077 Mbytes
   Step          Temp          PotEng           Lx             Ly             Lz            Pxx            Pyy            Pzz            Fmax          Fnorm     
       331                     0   -255.2864595628646    9.968195759193717    8.632710757362171        49.9812277894 -2.842694114195644e-07 -6.952329849996723e-07 -6.242199313517607e-15 2.525753540425755e-09 4.965869029589592e-09
       332  2.471811334642562e-18   -255.2864595628649    9.968195759193717    8.632710757362171        49.9812277894 -2.889105448359535e-07 -6.907206168667354e-07 -6.220721552709637e-15 2.519140826268934e-09 4.95409485269771e-09
Loop time of 0.000270732 on 1 procs for 1 steps with 32 atoms

53.6% CPU use with 1 MPI tasks x no OpenMP threads

Minimization stats:
  Stopping criterion = force tolerance
  Energy initial, next-to-last, final = 
     -255.286459562865  -255.286459562865  -255.286459562865
  Force two-norm initial, final = 4.965869e-09 4.9540949e-09
  Force max component initial, final = 2.5257535e-09 2.5191408e-09
  Final line search alpha, max atom move = 0 0
  Iterations, force evaluations = 1 2

MPI task timing breakdown:
Section |  min time  |  avg time  |  max time  |%varavg| %total
---------------------------------------------------------------
Pair    | 7.6885e-05 | 7.6885e-05 | 7.6885e-05 |   0.0 | 28.40
Neigh   | 0          | 0          | 0          |   0.0 |  0.00
Comm    | 1.757e-06  | 1.757e-06  | 1.757e-06  |   0.0 |  0.65
Output  | 0          | 0          | 0          |   0.0 |  0.00
Modify  | 0          | 0          | 0          |   0.0 |  0.00
Other   |            | 0.0001921  |            |       | 70.95

Nlocal:             32 ave          32 max          32 min
Histogram: 1 0 0 0 0 0 0 0 0 0
Nghost:             81 ave          81 max          81 min
Histogram: 1 0 0 0 0 0 0 0 0 0
Neighs:              0 ave           0 max           0 min
Histogram: 1 0 0 0 0 0 0 0 0 0
FullNghs:          576 ave         576 max         576 min
Histogram: 1 0 0 0 0 0 0 0 0 0

Total # of neighbors = 576
Ave neighs/atom = 18
Neighbor list builds = 0
Dangerous builds = 0

next nr
jump ${simname}.in loopmin
jump Tersoff.in loopmin

# Minimize the with cg + box/relax
  fix             frb all box/relax tri 0.0 couple none
  min_style       cg
  min_modify      line quadratic
  minimize        0.0 1.0e-3 10000 10000
WARNING: Energy due to 6 extra global DOFs will be included in minimizer energies
 (src/min.cpp:225)
Per MPI rank memory allocation (min/avg/max) = 4.202 | 4.202 | 4.202 Mbytes
   Step          Temp          PotEng           Lx             Ly             Lz            Pxx            Pyy            Pzz            Fmax          Fnorm     
       332  2.471811334642562e-18   -255.2864595628651    9.968195759193717    8.632710757362171        49.9812277894 -2.890689838279291e-07 -6.90700413930797e-07 -6.220415883490222e-15 2.519140826268982e-09 4.954106101675021e-09
       333  2.471811334642562e-18   -255.2864595628651    9.968195759169012    8.632710757311049        49.9812277894 1.580950457810165e-06 3.818158301491726e-06 -6.16368959259722e-15 2.492993237147779e-09 4.93289168276889e-09
Loop time of 0.000406098 on 1 procs for 1 steps with 32 atoms

56.9% CPU use with 1 MPI tasks x no OpenMP threads

Minimization stats:
  Stopping criterion = force tolerance
  Energy initial, next-to-last, final = 
     -255.286459562865  -255.286459562865  -255.286459562865
  Force two-norm initial, final = 5.3737146e-09 1.264522e-08
  Force max component initial, final = 2.5191408e-09 1.0249773e-08
  Final line search alpha, max atom move = 1 1.0249773e-08
  Iterations, force evaluations = 1 2

MPI task timing breakdown:
Section |  min time  |  avg time  |  max time  |%varavg| %total
---------------------------------------------------------------
Pair    | 0.00010217 | 0.00010217 | 0.00010217 |   0.0 | 25.16
Neigh   | 0          | 0          | 0          |   0.0 |  0.00
Comm    | 2.05e-06   | 2.05e-06   | 2.05e-06   |   0.0 |  0.50
Output  | 0          | 0          | 0          |   0.0 |  0.00
Modify  | 0          | 0          | 0          |   0.0 |  0.00
Other   |            | 0.0003019  |            |       | 74.34

Nlocal:             32 ave          32 max          32 min
Histogram: 1 0 0 0 0 0 0 0 0 0
Nghost:             81 ave          81 max          81 min
Histogram: 1 0 0 0 0 0 0 0 0 0
Neighs:              0 ave           0 max           0 min
Histogram: 1 0 0 0 0 0 0 0 0 0
FullNghs:          576 ave         576 max         576 min
Histogram: 1 0 0 0 0 0 0 0 0 0

Total # of neighbors = 576
Ave neighs/atom = 18
Neighbor list builds = 0
Dangerous builds = 0

# Minimize the with fire
  unfix           frb
  min_style       fire
  minimize        0.0 1.0e-3 10000 10000
  Parameters for fire:
    dmax  delaystep dtgrow dtshrink alpha0 alphashrink tmax tmin   integrator   halfstepback   abcfire  
     0.1     20      1.1     0.5     0.25     0.99      10  0.02 eulerimplicit      yes          no     
Per MPI rank memory allocation (min/avg/max) = 3.077 | 3.077 | 3.077 Mbytes
   Step          Temp          PotEng           Lx             Ly             Lz            Pxx            Pyy            Pzz            Fmax          Fnorm     
       333                     0   -255.2864595628649    9.968195759169012    8.632710757311049        49.9812277894 1.581019937712595e-06 3.818205324497099e-06 -6.170741738308394e-15 2.492993237147744e-09 4.932897517186527e-09
       334  2.439106813780919e-18    -255.286459562865    9.968195759169012    8.632710757311049        49.9812277894 1.594268142195322e-06 3.805136713155443e-06 -6.149693011303179e-15 2.486506268113835e-09 4.917519723078477e-09
Loop time of 0.000418233 on 1 procs for 1 steps with 32 atoms

48.8% CPU use with 1 MPI tasks x no OpenMP threads

Minimization stats:
  Stopping criterion = force tolerance
  Energy initial, next-to-last, final = 
     -255.286459562865  -255.286459562865  -255.286459562865
  Force two-norm initial, final = 4.9328975e-09 4.9175197e-09
  Force max component initial, final = 2.4929932e-09 2.4865063e-09
  Final line search alpha, max atom move = 0 0
  Iterations, force evaluations = 1 2

MPI task timing breakdown:
Section |  min time  |  avg time  |  max time  |%varavg| %total
---------------------------------------------------------------
Pair    | 0.00010544 | 0.00010544 | 0.00010544 |   0.0 | 25.21
Neigh   | 0          | 0          | 0          |   0.0 |  0.00
Comm    | 2.247e-06  | 2.247e-06  | 2.247e-06  |   0.0 |  0.54
Output  | 0          | 0          | 0          |   0.0 |  0.00
Modify  | 0          | 0          | 0          |   0.0 |  0.00
Other   |            | 0.0003105  |            |       | 74.25

Nlocal:             32 ave          32 max          32 min
Histogram: 1 0 0 0 0 0 0 0 0 0
Nghost:             81 ave          81 max          81 min
Histogram: 1 0 0 0 0 0 0 0 0 0
Neighs:              0 ave           0 max           0 min
Histogram: 1 0 0 0 0 0 0 0 0 0
FullNghs:          576 ave         576 max         576 min
Histogram: 1 0 0 0 0 0 0 0 0 0

Total # of neighbors = 576
Ave neighs/atom = 18
Neighbor list builds = 0
Dangerous builds = 0

next nr
jump ${simname}.in loopmin
jump Tersoff.in loopmin

# Minimize the with cg + box/relax
  fix             frb all box/relax tri 0.0 couple none
  min_style       cg
  min_modify      line quadratic
  minimize        0.0 1.0e-3 10000 10000
Per MPI rank memory allocation (min/avg/max) = 4.202 | 4.202 | 4.202 Mbytes
   Step          Temp          PotEng           Lx             Ly             Lz            Pxx            Pyy            Pzz            Fmax          Fnorm     
WARNING: Too many warnings: 101 vs 100. All future warnings will be suppressed (src/thermo.cpp:472)
       334  2.439106813780919e-18    -255.286459562865    9.968195759169012    8.632710757311049        49.9812277894 1.59418443545563e-06 3.805115641720723e-06 -6.149722592195381e-15 2.486506268113844e-09 4.917528089428798e-09
       335  2.439106813780919e-18    -255.286459562865    9.968195759193462    8.632710757361586        49.9812277894 -2.651430417562157e-07 -6.438706701389219e-07 -6.139763691769841e-15 2.481942459938445e-09 4.894124576397048e-09
Loop time of 0.000335947 on 1 procs for 1 steps with 32 atoms

58.6% CPU use with 1 MPI tasks x no OpenMP threads

Minimization stats:
  Stopping criterion = force tolerance
  Energy initial, next-to-last, final = 
     -255.286459562865  -255.286459562865  -255.286459562865
  Force two-norm initial, final = 1.2611598e-08 5.3162454e-09
  Force max component initial, final = 1.021476e-08 2.4819425e-09
  Final line search alpha, max atom move = 1 2.4819425e-09
  Iterations, force evaluations = 1 2

MPI task timing breakdown:
Section |  min time  |  avg time  |  max time  |%varavg| %total
---------------------------------------------------------------
Pair    | 9.9372e-05 | 9.9372e-05 | 9.9372e-05 |   0.0 | 29.58
Neigh   | 0          | 0          | 0          |   0.0 |  0.00
Comm    | 2.781e-06  | 2.781e-06  | 2.781e-06  |   0.0 |  0.83
Output  | 0          | 0          | 0          |   0.0 |  0.00
Modify  | 0          | 0          | 0          |   0.0 |  0.00
Other   |            | 0.0002338  |            |       | 69.59

Nlocal:             32 ave          32 max          32 min
Histogram: 1 0 0 0 0 0 0 0 0 0
Nghost:             81 ave          81 max          81 min
Histogram: 1 0 0 0 0 0 0 0 0 0
Neighs:              0 ave           0 max           0 min
Histogram: 1 0 0 0 0 0 0 0 0 0
FullNghs:          576 ave         576 max         576 min
Histogram: 1 0 0 0 0 0 0 0 0 0

Total # of neighbors = 576
Ave neighs/atom = 18
Neighbor list builds = 0
Dangerous builds = 0

# Minimize the with fire
  unfix           frb
  min_style       fire
  minimize        0.0 1.0e-3 10000 10000
  Parameters for fire:
    dmax  delaystep dtgrow dtshrink alpha0 alphashrink tmax tmin   integrator   halfstepback   abcfire  
     0.1     20      1.1     0.5     0.25     0.99      10  0.02 eulerimplicit      yes          no     
Per MPI rank memory allocation (min/avg/max) = 3.077 | 3.077 | 3.077 Mbytes
   Step          Temp          PotEng           Lx             Ly             Lz            Pxx            Pyy            Pzz            Fmax          Fnorm     
       335                     0   -255.2864595628651    9.968195759193462    8.632710757361586        49.9812277894 -2.649687216437696e-07 -6.439950515716432e-07 -6.146495266949428e-15 2.481942459938452e-09 4.894133534347198e-09
       336  2.400912986569657e-18   -255.2864595628649    9.968195759193462    8.632710757361586        49.9812277894 -2.696062156367033e-07 -6.393069158281993e-07 -6.125711011294215e-15 2.475566442485297e-09 4.882839740310309e-09
Loop time of 0.000346871 on 1 procs for 1 steps with 32 atoms

54.2% CPU use with 1 MPI tasks x no OpenMP threads

Minimization stats:
  Stopping criterion = force tolerance
  Energy initial, next-to-last, final = 
     -255.286459562865  -255.286459562865  -255.286459562865
  Force two-norm initial, final = 4.8941335e-09 4.8828397e-09
  Force max component initial, final = 2.4819425e-09 2.4755664e-09
  Final line search alpha, max atom move = 0 0
  Iterations, force evaluations = 1 2

MPI task timing breakdown:
Section |  min time  |  avg time  |  max time  |%varavg| %total
---------------------------------------------------------------
Pair    | 0.0001035  | 0.0001035  | 0.0001035  |   0.0 | 29.84
Neigh   | 0          | 0          | 0          |   0.0 |  0.00
Comm    | 2.893e-06  | 2.893e-06  | 2.893e-06  |   0.0 |  0.83
Output  | 0          | 0          | 0          |   0.0 |  0.00
Modify  | 0          | 0          | 0          |   0.0 |  0.00
Other   |            | 0.0002405  |            |       | 69.33

Nlocal:             32 ave          32 max          32 min
Histogram: 1 0 0 0 0 0 0 0 0 0
Nghost:             81 ave          81 max          81 min
Histogram: 1 0 0 0 0 0 0 0 0 0
Neighs:              0 ave           0 max           0 min
Histogram: 1 0 0 0 0 0 0 0 0 0
FullNghs:          576 ave         576 max         576 min
Histogram: 1 0 0 0 0 0 0 0 0 0

Total # of neighbors = 576
Ave neighs/atom = 18
Neighbor list builds = 0
Dangerous builds = 0

next nr
jump ${simname}.in loopmin
jump Tersoff.in loopmin

variable        energy equal pe
fix             output all ave/time 1 1 1 v_energy file ${simname}_energy.data
fix             output all ave/time 1 1 1 v_energy file Tersoff_energy.data
dump            dump1 all custom 1 ${simname}.lammpstrj id type x y z fx fy fz
dump            dump1 all custom 1 Tersoff.lammpstrj id type x y z fx fy fz
dump_modify     dump1 sort id

fix             nve all nve
run             0
Per MPI rank memory allocation (min/avg/max) = 3.077 | 3.077 | 3.077 Mbytes
   Step          Temp          PotEng           Lx             Ly             Lz            Pxx            Pyy            Pzz            Fmax          Fnorm     
       336  2.400912986569657e-18   -255.2864595628651    9.968195759193462    8.632710757361586        49.9812277894 -2.694911188696272e-07 -6.395150453575957e-07 -6.125720871591616e-15 2.475566442485313e-09 4.882841041915384e-09
Loop time of 2.28e-06 on 1 procs for 0 steps with 32 atoms

614.0% CPU use with 1 MPI tasks x no OpenMP threads

MPI task timing breakdown:
Section |  min time  |  avg time  |  max time  |%varavg| %total
---------------------------------------------------------------
Pair    | 0          | 0          | 0          |   0.0 |  0.00
Neigh   | 0          | 0          | 0          |   0.0 |  0.00
Comm    | 0          | 0          | 0          |   0.0 |  0.00
Output  | 0          | 0          | 0          |   0.0 |  0.00
Modify  | 0          | 0          | 0          |   0.0 |  0.00
Other   |            | 2.28e-06   |            |       |100.00

Nlocal:             32 ave          32 max          32 min
Histogram: 1 0 0 0 0 0 0 0 0 0
Nghost:             81 ave          81 max          81 min
Histogram: 1 0 0 0 0 0 0 0 0 0
Neighs:              0 ave           0 max           0 min
Histogram: 1 0 0 0 0 0 0 0 0 0
FullNghs:          576 ave         576 max         576 min
Histogram: 1 0 0 0 0 0 0 0 0 0

Total # of neighbors = 576
Ave neighs/atom = 18
Neighbor list builds = 0
Dangerous builds = 0
Total wall time: 0:00:00
