ITEM: TIMESTEP
336
ITEM: NUMBER OF ATOMS
32
ITEM: BOX BOUNDS xy xz yz pp pp pp
-5.6935329346733426e-02 1.4895362756798409e+01 4.9840978795907782e+00
-4.9452468380760881e-02 8.5832618045574627e+00 4.4473609039771797e-06
3.2118360345441808e-16 4.9981227789400002e+01 3.5155766374730773e-06
ITEM: ATOMS id type x y z fx fy fz
1 1 14.8942 8.58237 23.3912 9.89786e-12 2.79403e-11 -1.68706e-10
2 1 1.18797 0.669053 23.3912 2.36433e-12 1.78701e-10 1.00256e-10
3 1 11.1562 2.10784 23.3912 -3.64011e-11 1.11736e-10 1.19561e-10
4 1 2.434 2.82723 23.3912 1.7998e-11 9.24487e-11 4.62853e-10
5 1 12.4022 4.26602 23.3912 6.64269e-11 -4.67182e-12 2.70448e-10
6 1 3.68002 4.98541 23.3912 1.65592e-10 -5.10276e-11 -6.64238e-10
7 1 13.6482 6.42419 23.3912 1.14333e-10 -8.63025e-11 -1.9843e-09
8 1 4.92605 7.14359 23.3912 1.49976e-10 3.53566e-11 -8.04961e-10
9 1 7.41809 8.58237 23.3912 -9.07079e-11 1.33573e-10 2.61121e-10
10 1 3.68002 0.669053 23.3912 -8.51301e-11 1.28501e-10 2.20106e-10
11 1 3.68002 2.10784 23.3912 -1.05999e-10 3.97975e-11 7.31356e-10
12 1 4.92605 2.82723 23.3912 -2.53235e-11 -4.28137e-11 9.73963e-10
13 1 4.92605 4.26602 23.3912 7.41152e-11 -1.03875e-10 2.35898e-10
14 1 6.17207 4.98541 23.3912 1.1314e-10 -1.50426e-11 2.49922e-10
15 1 6.17207 6.42419 23.3912 8.98862e-11 -8.2796e-12 -1.19902e-11
16 1 7.41809 7.14359 23.3912 5.58487e-11 1.57129e-10 5.10888e-10
17 1 9.91014 8.58237 23.3912 -1.96255e-10 -6.9702e-12 -1.59608e-10
18 1 6.17207 0.669053 23.3912 -1.05427e-10 -8.13793e-11 -7.73739e-10
19 1 6.17207 2.10784 23.3912 -1.34771e-10 -1.2913e-10 8.06566e-10
20 1 7.41809 2.82723 23.3912 -5.30032e-11 -7.99005e-11 1.14453e-09
21 1 7.41809 4.26602 23.3912 1.22445e-11 -9.47227e-11 7.63561e-10
22 1 8.66412 4.98541 23.3912 4.25835e-11 3.31219e-11 7.26851e-10
23 1 8.66412 6.42419 23.3912 -4.84385e-11 2.68701e-11 8.12802e-10
24 1 9.91014 7.14359 23.3912 -5.61684e-12 3.35696e-11 2.68052e-10
25 1 12.4022 8.58237 23.3912 -9.60085e-11 -1.14289e-10 -2.01685e-09
26 1 8.66412 0.669053 23.3912 -1.72978e-11 -3.26743e-11 -5.12626e-10
27 1 8.66412 2.10784 23.3912 -6.72318e-11 -5.85108e-11 5.75498e-10
28 1 9.91014 2.82723 23.3912 -1.01299e-11 5.41611e-11 2.8428e-10
29 1 9.91014 4.26602 23.3912 4.63274e-12 3.12506e-12 4.49088e-10
30 1 11.1562 4.98541 23.3912 9.43721e-11 -4.51913e-12 2.88763e-10
31 1 11.1562 6.42419 23.3912 -2.37189e-11 -5.12035e-11 -6.83787e-10
32 1 12.4022 7.14359 23.3912 8.80354e-11 -9.07548e-11 -2.47557e-09
