   31   31 1000    1
  0.1354477E+03  0.9846720E-09  0.9850882E-09  0.5000000E-08  0.5000000E-15
  1.000000000000000E-004
  CAR 
 unknown system                          
    124     13     78
 
  0.0000000E+00  0.0000000E+00  0.0000000E+00  0.4000000E-01
    1      -23.295592   1.000000
    2      -21.959695   1.000000
    3      -21.942257   1.000000
    4      -21.902790   1.000000
    5      -21.899553   1.000000
    6      -21.894899   1.000000
    7      -21.120670   1.000000
    8      -19.157258   1.000000
    9      -19.150149   1.000000
   10      -19.075187   1.000000
   11      -18.975386   1.000000
   12      -18.958377   1.000000
   13      -18.482838   1.000000
   14      -18.107178   1.000000
   15      -18.104114   1.000000
   16      -17.513578   1.000000
   17      -16.897244   1.000000
   18      -16.881937   1.000000
   19      -15.926844   1.000000
   20      -14.445865   1.000000
   21      -14.339474   1.000000
   22      -14.336132   1.000000
   23      -14.142023   1.000000
   24      -14.106536   1.000000
   25      -13.087131   1.000000
   26      -12.877167   1.000000
   27      -12.770913   1.000000
   28      -12.765563   1.000000
   29      -12.308064   1.000000
   30      -12.293295   1.000000
   31      -12.177389   1.000000
   32      -11.364706   1.000000
   33      -11.348448   1.000000
   34      -11.326146   1.000000
   35      -11.320562   1.000000
   36      -10.756713   1.000000
   37      -10.753675   1.000000
   38      -10.320762   1.000000
   39       -9.747836   1.000000
   40       -9.746204   1.000000
   41       -9.729726   1.000000
   42       -9.727708   1.000000
   43       -9.698349   1.000000
   44       -9.690897   1.000000
   45       -9.687398   1.000000
   46       -9.058491   1.000000
   47       -8.964965   1.000000
   48       -8.960891   1.000000
   49       -8.949076   1.000000
   50       -8.726934   1.000000
   51       -7.953496   1.000000
   52       -7.417970   1.000000
   53       -7.385916   1.000000
   54       -6.562071   1.000000
   55       -6.556409   1.000000
   56       -6.539643   1.000000
   57       -6.530853   1.000000
   58       -6.497377   1.000000
   59       -6.265697   1.000000
   60       -6.148282   1.000000
   61       -6.142429   1.000000
   62       -4.352945   1.000000
   63       -3.546905   0.000000
   64       -3.450555   0.000000
   65       -2.030631   0.000000
   66       -2.015455   0.000000
   67       -1.783121   0.000000
   68       -1.110610   0.000000
   69       -0.879149   0.000000
   70       -0.871832   0.000000
   71       -0.717247   0.000000
   72       -0.687670   0.000000
   73       -0.382944   0.000000
   74        0.357335   0.000000
   75        0.586767   0.000000
   76        0.668455   0.000000
   77        0.748076   0.000000
   78        0.950911   0.000000
 
  0.2000000E+00  0.6888579E-17  0.0000000E+00  0.8000000E-01
    1      -23.239983   1.000000
    2      -22.387338   1.000000
    3      -22.166445   1.000000
    4      -21.962678   1.000000
    5      -21.580998   1.000000
    6      -21.390799   1.000000
    7      -20.922090   1.000000
    8      -19.870209   1.000000
    9      -19.608362   1.000000
   10      -18.959174   1.000000
   11      -18.925443   1.000000
   12      -18.617552   1.000000
   13      -18.316786   1.000000
   14      -18.190335   1.000000
   15      -18.182345   1.000000
   16      -17.291722   1.000000
   17      -16.646385   1.000000
   18      -16.493960   1.000000
   19      -15.681596   1.000000
   20      -15.195832   1.000000
   21      -14.904566   1.000000
   22      -14.663708   1.000000
   23      -14.009199   1.000000
   24      -13.649266   1.000000
   25      -13.331168   1.000000
   26      -13.051106   1.000000
   27      -12.896827   1.000000
   28      -12.359892   1.000000
   29      -12.330404   1.000000
   30      -12.165847   1.000000
   31      -11.950837   1.000000
   32      -11.511915   1.000000
   33      -11.483902   1.000000
   34      -11.281003   1.000000
   35      -11.011640   1.000000
   36      -10.538467   1.000000
   37      -10.388620   1.000000
   38      -10.260394   1.000000
   39      -10.254677   1.000000
   40       -9.993421   1.000000
   41       -9.854599   1.000000
   42       -9.807089   1.000000
   43       -9.789501   1.000000
   44       -9.367604   1.000000
   45       -9.312713   1.000000
   46       -9.117189   1.000000
   47       -9.114574   1.000000
   48       -8.959044   1.000000
   49       -8.685015   1.000000
   50       -8.613854   1.000000
   51       -7.887504   1.000000
   52       -7.480309   1.000000
   53       -7.469492   1.000000
   54       -7.372533   1.000000
   55       -7.170368   1.000000
   56       -6.502300   1.000000
   57       -6.497243   1.000000
   58       -6.339291   1.000000
   59       -6.190863   1.000000
   60       -5.875248   1.000000
   61       -5.658918   1.000000
   62       -4.283567   1.000000
   63       -3.577146   0.000000
   64       -3.565531   0.000000
   65       -1.971763   0.000000
   66       -1.912140   0.000000
   67       -1.855186   0.000000
   68       -1.634783   0.000000
   69       -1.269087   0.000000
   70       -0.979803   0.000000
   71       -0.302259   0.000000
   72       -0.270340   0.000000
   73        0.105925   0.000000
   74        0.442605   0.000000
   75        0.670110   0.000000
   76        0.751973   0.000000
   77        0.830941   0.000000
   78        0.909233   0.000000
 
  0.4000000E+00  0.1377716E-16  0.0000000E+00  0.8000000E-01
    1      -23.080915   1.000000
    2      -22.761659   1.000000
    3      -22.283104   1.000000
    4      -22.026214   1.000000
    5      -21.121748   1.000000
    6      -20.914300   1.000000
    7      -20.543007   1.000000
    8      -20.481766   1.000000
    9      -20.092526   1.000000
   10      -19.522385   1.000000
   11      -18.818994   1.000000
   12      -18.742811   1.000000
   13      -18.542560   1.000000
   14      -18.026060   1.000000
   15      -17.376663   1.000000
   16      -16.837507   1.000000
   17      -16.145490   1.000000
   18      -16.058461   1.000000
   19      -15.958148   1.000000
   20      -15.690128   1.000000
   21      -15.337765   1.000000
   22      -15.033836   1.000000
   23      -14.251839   1.000000
   24      -13.687565   1.000000
   25      -13.395720   1.000000
   26      -13.298945   1.000000
   27      -12.974601   1.000000
   28      -12.734035   1.000000
   29      -12.285759   1.000000
   30      -11.624428   1.000000
   31      -11.526997   1.000000
   32      -11.177368   1.000000
   33      -11.087107   1.000000
   34      -11.010201   1.000000
   35      -10.794305   1.000000
   36      -10.709932   1.000000
   37      -10.561392   1.000000
   38      -10.481715   1.000000
   39      -10.173071   1.000000
   40      -10.130099   1.000000
   41      -10.054421   1.000000
   42       -9.876656   1.000000
   43       -9.803822   1.000000
   44       -9.707142   1.000000
   45       -9.056604   1.000000
   46       -9.015711   1.000000
   47       -8.780773   1.000000
   48       -8.600113   1.000000
   49       -8.477090   1.000000
   50       -8.274118   1.000000
   51       -8.135071   1.000000
   52       -8.129157   1.000000
   53       -7.726359   1.000000
   54       -7.590306   1.000000
   55       -7.332254   1.000000
   56       -7.109792   1.000000
   57       -6.417416   1.000000
   58       -6.358675   1.000000
   59       -6.286324   1.000000
   60       -5.591848   1.000000
   61       -4.929482   1.000000
   62       -4.059498   1.015051
   63       -3.772185   0.000000
   64       -3.619036   0.000000
   65       -2.677052   0.000000
   66       -2.253501   0.000000
   67       -1.670323   0.000000
   68       -1.540920   0.000000
   69       -1.246376   0.000000
   70       -0.715882   0.000000
   71       -0.061807   0.000000
   72        0.061176   0.000000
   73        0.349341   0.000000
   74        0.693069   0.000000
   75        0.902741   0.000000
   76        0.920190   0.000000
   77        1.002485   0.000000
   78        1.080530   0.000000
 
  0.0000000E+00  0.2000000E+00  0.0000000E+00  0.8000000E-01
    1      -23.240639   1.000000
    2      -22.386429   1.000000
    3      -22.155996   1.000000
    4      -21.976787   1.000000
    5      -21.573635   1.000000
    6      -21.393567   1.000000
    7      -20.926142   1.000000
    8      -19.868960   1.000000
    9      -19.609316   1.000000
   10      -18.950158   1.000000
   11      -18.927395   1.000000
   12      -18.617957   1.000000
   13      -18.313498   1.000000
   14      -18.196367   1.000000
   15      -18.181571   1.000000
   16      -17.290638   1.000000
   17      -16.639593   1.000000
   18      -16.503107   1.000000
   19      -15.688996   1.000000
   20      -15.202173   1.000000
   21      -14.901615   1.000000
   22      -14.665840   1.000000
   23      -13.992974   1.000000
   24      -13.651598   1.000000
   25      -13.322643   1.000000
   26      -13.053692   1.000000
   27      -12.900608   1.000000
   28      -12.352861   1.000000
   29      -12.323235   1.000000
   30      -12.171003   1.000000
   31      -11.962777   1.000000
   32      -11.512569   1.000000
   33      -11.490693   1.000000
   34      -11.281530   1.000000
   35      -10.993985   1.000000
   36      -10.528953   1.000000
   37      -10.399684   1.000000
   38      -10.274102   1.000000
   39      -10.261421   1.000000
   40       -9.984540   1.000000
   41       -9.858470   1.000000
   42       -9.797156   1.000000
   43       -9.791363   1.000000
   44       -9.373865   1.000000
   45       -9.306896   1.000000
   46       -9.123387   1.000000
   47       -9.117828   1.000000
   48       -8.955197   1.000000
   49       -8.689173   1.000000
   50       -8.607241   1.000000
   51       -7.890540   1.000000
   52       -7.495596   1.000000
   53       -7.451782   1.000000
   54       -7.372574   1.000000
   55       -7.174889   1.000000
   56       -6.505922   1.000000
   57       -6.491891   1.000000
   58       -6.333346   1.000000
   59       -6.184828   1.000000
   60       -5.874856   1.000000
   61       -5.663282   1.000000
   62       -4.287487   1.000000
   63       -3.650271   0.000000
   64       -3.490195   0.000000
   65       -1.972745   0.000000
   66       -1.910239   0.000000
   67       -1.851049   0.000000
   68       -1.645956   0.000000
   69       -1.253574   0.000000
   70       -0.983193   0.000000
   71       -0.302557   0.000000
   72       -0.278082   0.000000
   73        0.100619   0.000000
   74        0.442477   0.000000
   75        0.669824   0.000000
   76        0.751705   0.000000
   77        0.830652   0.000000
   78        0.904796   0.000000
 
  0.2000000E+00  0.2000000E+00  0.0000000E+00  0.8000000E-01
    1      -23.240729   1.000000
    2      -22.386128   1.000000
    3      -22.155084   1.000000
    4      -21.978187   1.000000
    5      -21.573116   1.000000
    6      -21.393549   1.000000
    7      -20.926845   1.000000
    8      -19.868986   1.000000
    9      -19.608994   1.000000
   10      -18.949349   1.000000
   11      -18.926982   1.000000
   12      -18.617634   1.000000
   13      -18.313735   1.000000
   14      -18.196204   1.000000
   15      -18.183642   1.000000
   16      -17.289339   1.000000
   17      -16.637097   1.000000
   18      -16.505457   1.000000
   19      -15.690221   1.000000
   20      -15.204676   1.000000
   21      -14.900131   1.000000
   22      -14.666015   1.000000
   23      -13.990958   1.000000
   24      -13.651844   1.000000
   25      -13.320889   1.000000
   26      -13.052356   1.000000
   27      -12.902063   1.000000
   28      -12.354007   1.000000
   29      -12.323955   1.000000
   30      -12.171808   1.000000
   31      -11.963171   1.000000
   32      -11.510857   1.000000
   33      -11.491398   1.000000
   34      -11.281599   1.000000
   35      -10.991304   1.000000
   36      -10.527926   1.000000
   37      -10.399940   1.000000
   38      -10.277880   1.000000
   39      -10.261239   1.000000
   40       -9.983973   1.000000
   41       -9.859528   1.000000
   42       -9.797877   1.000000
   43       -9.788858   1.000000
   44       -9.374886   1.000000
   45       -9.306715   1.000000
   46       -9.123057   1.000000
   47       -9.117671   1.000000
   48       -8.957249   1.000000
   49       -8.689727   1.000000
   50       -8.604738   1.000000
   51       -7.893485   1.000000
   52       -7.496856   1.000000
   53       -7.448069   1.000000
   54       -7.372740   1.000000
   55       -7.174954   1.000000
   56       -6.505206   1.000000
   57       -6.491296   1.000000
   58       -6.332135   1.000000
   59       -6.185761   1.000000
   60       -5.876132   1.000000
   61       -5.663389   1.000000
   62       -4.287040   1.000000
   63       -3.655081   0.000000
   64       -3.485167   0.000000
   65       -1.971796   0.000000
   66       -1.910093   0.000000
   67       -1.851077   0.000000
   68       -1.648493   0.000000
   69       -1.252348   0.000000
   70       -0.982611   0.000000
   71       -0.302597   0.000000
   72       -0.277481   0.000000
   73        0.098893   0.000000
   74        0.442454   0.000000
   75        0.669792   0.000000
   76        0.751673   0.000000
   77        0.830648   0.000000
   78        0.904412   0.000000
 
  0.4000000E+00  0.2000000E+00  0.0000000E+00  0.8000000E-01
    1      -23.132088   1.000000
    2      -22.619608   1.000000
    3      -22.430011   1.000000
    4      -21.753985   1.000000
    5      -21.519370   1.000000
    6      -20.872294   1.000000
    7      -20.672020   1.000000
    8      -20.384284   1.000000
    9      -19.717625   1.000000
   10      -19.502046   1.000000
   11      -19.218871   1.000000
   12      -18.708244   1.000000
   13      -18.126399   1.000000
   14      -17.992445   1.000000
   15      -17.629782   1.000000
   16      -17.054233   1.000000
   17      -16.501882   1.000000
   18      -15.811934   1.000000
   19      -15.781325   1.000000
   20      -15.735452   1.000000
   21      -15.334299   1.000000
   22      -14.732086   1.000000
   23      -14.206573   1.000000
   24      -13.834756   1.000000
   25      -13.651047   1.000000
   26      -13.224125   1.000000
   27      -12.684300   1.000000
   28      -12.579856   1.000000
   29      -12.300316   1.000000
   30      -11.844002   1.000000
   31      -11.404928   1.000000
   32      -11.386379   1.000000
   33      -11.173533   1.000000
   34      -11.149437   1.000000
   35      -10.895502   1.000000
   36      -10.709554   1.000000
   37      -10.530278   1.000000
   38      -10.333448   1.000000
   39      -10.305405   1.000000
   40      -10.081368   1.000000
   41       -9.928867   1.000000
   42       -9.720296   1.000000
   43       -9.597846   1.000000
   44       -9.518832   1.000000
   45       -9.509774   1.000000
   46       -9.275454   1.000000
   47       -8.766404   1.000000
   48       -8.635056   1.000000
   49       -8.514464   1.000000
   50       -8.360792   1.000000
   51       -8.020236   1.000000
   52       -7.983754   1.000000
   53       -7.621372   1.000000
   54       -7.377656   1.000000
   55       -7.289797   1.000000
   56       -7.070624   1.000000
   57       -6.819038   1.000000
   58       -6.415426   1.000000
   59       -5.853187   1.000000
   60       -5.691966   1.000000
   61       -5.106599   1.000000
   62       -4.095820   1.033818
   63       -3.763170  -0.038007
   64       -3.576275   0.000000
   65       -2.595199   0.000000
   66       -2.107865   0.000000
   67       -1.888501   0.000000
   68       -1.531804   0.000000
   69       -1.104750   0.000000
   70       -0.697504   0.000000
   71       -0.141715   0.000000
   72       -0.058793   0.000000
   73        0.528177   0.000000
   74        0.629332   0.000000
   75        0.634309   0.000000
   76        0.713645   0.000000
   77        0.836603   0.000000
   78        0.919028   0.000000
 
 -0.4000000E+00  0.2000000E+00  0.0000000E+00  0.8000000E-01
    1      -22.966392   1.000000
    2      -22.851770   1.000000
    3      -22.524967   1.000000
    4      -21.712330   1.000000
    5      -21.226054   1.000000
    6      -20.979950   1.000000
    7      -20.370915   1.000000
    8      -20.211932   1.000000
    9      -20.038084   1.000000
   10      -19.812619   1.000000
   11      -19.513912   1.000000
   12      -18.873123   1.000000
   13      -17.985577   1.000000
   14      -17.714750   1.000000
   15      -17.232060   1.000000
   16      -16.652776   1.000000
   17      -16.449315   1.000000
   18      -16.394829   1.000000
   19      -16.171142   1.000000
   20      -15.418680   1.000000
   21      -15.049641   1.000000
   22      -14.716843   1.000000
   23      -14.340563   1.000000
   24      -14.118922   1.000000
   25      -13.851204   1.000000
   26      -13.700765   1.000000
   27      -12.644833   1.000000
   28      -12.465608   1.000000
   29      -11.976246   1.000000
   30      -11.628167   1.000000
   31      -11.510912   1.000000
   32      -11.232405   1.000000
   33      -10.945185   1.000000
   34      -10.813771   1.000000
   35      -10.764422   1.000000
   36      -10.687518   1.000000
   37      -10.538126   1.000000
   38      -10.495012   1.000000
   39      -10.447395   1.000000
   40      -10.303415   1.000000
   41      -10.074529   1.000000
   42      -10.037167   1.000000
   43       -9.631620   1.000000
   44       -9.481806   1.000000
   45       -9.169254   1.000000
   46       -8.939029   1.000000
   47       -8.906204   1.000000
   48       -8.677079   1.000000
   49       -8.454660   1.000000
   50       -8.214385   1.000000
   51       -7.956285   1.000000
   52       -7.823252   1.000000
   53       -7.772062   1.000000
   54       -7.669565   1.000000
   55       -7.398194   1.000000
   56       -7.264493   1.000000
   57       -7.077068   1.000000
   58       -6.538125   1.000000
   59       -5.772644   1.000000
   60       -5.484721   1.000000
   61       -4.786623   1.000000
   62       -3.835417   0.781360
   63       -3.833559  -0.074307
   64       -3.635299   0.000000
   65       -3.072807   0.000000
   66       -2.299379   0.000000
   67       -2.069922   0.000000
   68       -1.503190   0.000000
   69       -0.664989   0.000000
   70       -0.266100   0.000000
   71        0.145560   0.000000
   72        0.190892   0.000000
   73        0.218571   0.000000
   74        0.373993   0.000000
   75        0.596150   0.000000
   76        0.679132   0.000000
   77        0.931629   0.000000
   78        0.939026   0.000000
 
 -0.2000000E+00  0.2000000E+00  0.0000000E+00  0.8000000E-01
    1      -23.131791   1.000000
    2      -22.620901   1.000000
    3      -22.428946   1.000000
    4      -21.755469   1.000000
    5      -21.517908   1.000000
    6      -20.872750   1.000000
    7      -20.669470   1.000000
    8      -20.385981   1.000000
    9      -19.716931   1.000000
   10      -19.503859   1.000000
   11      -19.219305   1.000000
   12      -18.707596   1.000000
   13      -18.124424   1.000000
   14      -17.994120   1.000000
   15      -17.628636   1.000000
   16      -17.057852   1.000000
   17      -16.501128   1.000000
   18      -15.809986   1.000000
   19      -15.780754   1.000000
   20      -15.733111   1.000000
   21      -15.333519   1.000000
   22      -14.733364   1.000000
   23      -14.210763   1.000000
   24      -13.835333   1.000000
   25      -13.651089   1.000000
   26      -13.221213   1.000000
   27      -12.683835   1.000000
   28      -12.579276   1.000000
   29      -12.302823   1.000000
   30      -11.845773   1.000000
   31      -11.401479   1.000000
   32      -11.388203   1.000000
   33      -11.172884   1.000000
   34      -11.149211   1.000000
   35      -10.897367   1.000000
   36      -10.707822   1.000000
   37      -10.531311   1.000000
   38      -10.332563   1.000000
   39      -10.303094   1.000000
   40      -10.083500   1.000000
   41       -9.930368   1.000000
   42       -9.720991   1.000000
   43       -9.600013   1.000000
   44       -9.520027   1.000000
   45       -9.504482   1.000000
   46       -9.274517   1.000000
   47       -8.767898   1.000000
   48       -8.633371   1.000000
   49       -8.514679   1.000000
   50       -8.359157   1.000000
   51       -8.016125   1.000000
   52       -7.984546   1.000000
   53       -7.627462   1.000000
   54       -7.376465   1.000000
   55       -7.288852   1.000000
   56       -7.072427   1.000000
   57       -6.819490   1.000000
   58       -6.414863   1.000000
   59       -5.854675   1.000000
   60       -5.689849   1.000000
   61       -5.106588   1.000000
   62       -4.096512   1.037179
   63       -3.756204  -0.004825
   64       -3.583604   0.000000
   65       -2.594171   0.000000
   66       -2.110514   0.000000
   67       -1.887530   0.000000
   68       -1.531349   0.000000
   69       -1.102752   0.000000
   70       -0.698065   0.000000
   71       -0.141595   0.000000
   72       -0.062564   0.000000
   73        0.530822   0.000000
   74        0.628883   0.000000
   75        0.635431   0.000000
   76        0.714088   0.000000
   77        0.836707   0.000000
   78        0.919134   0.000000
 
  0.0000000E+00  0.4000000E+00  0.0000000E+00  0.8000000E-01
    1      -23.085379   1.000000
    2      -22.755983   1.000000
    3      -22.272368   1.000000
    4      -22.038155   1.000000
    5      -21.116544   1.000000
    6      -20.923955   1.000000
    7      -20.538831   1.000000
    8      -20.488809   1.000000
    9      -20.091790   1.000000
   10      -19.522385   1.000000
   11      -18.811702   1.000000
   12      -18.737307   1.000000
   13      -18.533595   1.000000
   14      -18.023443   1.000000
   15      -17.387851   1.000000
   16      -16.848605   1.000000
   17      -16.143740   1.000000
   18      -16.063031   1.000000
   19      -15.962318   1.000000
   20      -15.690039   1.000000
   21      -15.333047   1.000000
   22      -15.041759   1.000000
   23      -14.255280   1.000000
   24      -13.679581   1.000000
   25      -13.389005   1.000000
   26      -13.291840   1.000000
   27      -12.976079   1.000000
   28      -12.711276   1.000000
   29      -12.282876   1.000000
   30      -11.632936   1.000000
   31      -11.531571   1.000000
   32      -11.174731   1.000000
   33      -11.090438   1.000000
   34      -11.017644   1.000000
   35      -10.800508   1.000000
   36      -10.707244   1.000000
   37      -10.562573   1.000000
   38      -10.490432   1.000000
   39      -10.173385   1.000000
   40      -10.120887   1.000000
   41      -10.060326   1.000000
   42       -9.882532   1.000000
   43       -9.788406   1.000000
   44       -9.716156   1.000000
   45       -9.062684   1.000000
   46       -9.017441   1.000000
   47       -8.776663   1.000000
   48       -8.607451   1.000000
   49       -8.465314   1.000000
   50       -8.281078   1.000000
   51       -8.141240   1.000000
   52       -8.125987   1.000000
   53       -7.731178   1.000000
   54       -7.569243   1.000000
   55       -7.345437   1.000000
   56       -7.116873   1.000000
   57       -6.415821   1.000000
   58       -6.349143   1.000000
   59       -6.276165   1.000000
   60       -5.578160   1.000000
   61       -4.935551   1.000000
   62       -4.082917   1.000000
   63       -3.848374  -0.003159
   64       -3.537285   0.000000
   65       -2.683312   0.000000
   66       -2.229173   0.000000
   67       -1.661440   0.000000
   68       -1.532212   0.000000
   69       -1.249228   0.000000
   70       -0.745257   0.000000
   71       -0.062977   0.000000
   72        0.047631   0.000000
   73        0.346745   0.000000
   74        0.691677   0.000000
   75        0.896227   0.000000
   76        0.919045   0.000000
   77        1.001359   0.000000
   78        1.079422   0.000000
 
  0.2000000E+00  0.4000000E+00  0.0000000E+00  0.8000000E-01
    1      -23.134205   1.000000
    2      -22.610661   1.000000
    3      -22.436986   1.000000
    4      -21.743271   1.000000
    5      -21.530396   1.000000
    6      -20.870354   1.000000
    7      -20.684193   1.000000
    8      -20.379217   1.000000
    9      -19.706562   1.000000
   10      -19.507474   1.000000
   11      -19.216142   1.000000
   12      -18.712238   1.000000
   13      -18.119606   1.000000
   14      -17.990307   1.000000
   15      -17.631489   1.000000
   16      -17.046719   1.000000
   17      -16.513911   1.000000
   18      -15.824058   1.000000
   19      -15.779374   1.000000
   20      -15.749339   1.000000
   21      -15.331866   1.000000
   22      -14.717695   1.000000
   23      -14.198526   1.000000
   24      -13.825779   1.000000
   25      -13.658760   1.000000
   26      -13.230112   1.000000
   27      -12.675931   1.000000
   28      -12.580297   1.000000
   29      -12.293596   1.000000
   30      -11.834969   1.000000
   31      -11.424160   1.000000
   32      -11.378367   1.000000
   33      -11.177551   1.000000
   34      -11.151110   1.000000
   35      -10.888432   1.000000
   36      -10.730533   1.000000
   37      -10.524111   1.000000
   38      -10.338601   1.000000
   39      -10.309407   1.000000
   40      -10.069527   1.000000
   41       -9.914669   1.000000
   42       -9.730042   1.000000
   43       -9.597442   1.000000
   44       -9.521063   1.000000
   45       -9.508550   1.000000
   46       -9.281435   1.000000
   47       -8.757553   1.000000
   48       -8.649155   1.000000
   49       -8.516062   1.000000
   50       -8.368679   1.000000
   51       -8.008813   1.000000
   52       -7.987444   1.000000
   53       -7.614744   1.000000
   54       -7.384809   1.000000
   55       -7.279518   1.000000
   56       -7.071000   1.000000
   57       -6.819833   1.000000
   58       -6.418576   1.000000
   59       -5.846238   1.000000
   60       -5.688227   1.000000
   61       -5.105591   1.000000
   62       -4.107898   1.000000
   63       -3.805176  -0.116187
   64       -3.530640   0.000000
   65       -2.588994   0.000000
   66       -2.098306   0.000000
   67       -1.898417   0.000000
   68       -1.534230   0.000000
   69       -1.116678   0.000000
   70       -0.676053   0.000000
   71       -0.142598   0.000000
   72       -0.060530   0.000000
   73        0.510398   0.000000
   74        0.628549   0.000000
   75        0.629189   0.000000
   76        0.713551   0.000000
   77        0.835742   0.000000
   78        0.918137   0.000000
 
  0.4000000E+00  0.4000000E+00  0.0000000E+00  0.8000000E-01
    1      -23.086004   1.000000
    2      -22.755066   1.000000
    3      -22.271422   1.000000
    4      -22.039266   1.000000
    5      -21.116267   1.000000
    6      -20.924726   1.000000
    7      -20.538483   1.000000
    8      -20.490838   1.000000
    9      -20.090097   1.000000
   10      -19.522385   1.000000
   11      -18.811540   1.000000
   12      -18.735951   1.000000
   13      -18.532171   1.000000
   14      -18.025437   1.000000
   15      -17.388895   1.000000
   16      -16.846928   1.000000
   17      -16.143237   1.000000
   18      -16.064164   1.000000
   19      -15.964295   1.000000
   20      -15.689643   1.000000
   21      -15.332981   1.000000
   22      -15.042786   1.000000
   23      -14.256829   1.000000
   24      -13.678955   1.000000
   25      -13.386942   1.000000
   26      -13.290066   1.000000
   27      -12.975653   1.000000
   28      -12.709111   1.000000
   29      -12.282489   1.000000
   30      -11.633605   1.000000
   31      -11.533206   1.000000
   32      -11.175460   1.000000
   33      -11.090919   1.000000
   34      -11.020637   1.000000
   35      -10.800090   1.000000
   36      -10.706593   1.000000
   37      -10.560467   1.000000
   38      -10.491748   1.000000
   39      -10.172007   1.000000
   40      -10.120308   1.000000
   41      -10.060712   1.000000
   42       -9.883014   1.000000
   43       -9.784777   1.000000
   44       -9.716245   1.000000
   45       -9.065477   1.000000
   46       -9.020777   1.000000
   47       -8.776597   1.000000
   48       -8.608004   1.000000
   49       -8.460817   1.000000
   50       -8.288416   1.000000
   51       -8.142300   1.000000
   52       -8.126108   1.000000
   53       -7.730180   1.000000
   54       -7.562201   1.000000
   55       -7.347118   1.000000
   56       -7.116848   1.000000
   57       -6.414854   1.000000
   58       -6.347547   1.000000
   59       -6.277410   1.000000
   60       -5.579493   1.000000
   61       -4.934904   1.000000
   62       -4.082726   1.000000
   63       -3.855252   0.030290
   64       -3.529848   0.000000
   65       -2.686879   0.000000
   66       -2.226284   0.000000
   67       -1.657745   0.000000
   68       -1.532606   0.000000
   69       -1.249172   0.000000
   70       -0.747728   0.000000
   71       -0.063173   0.000000
   72        0.045485   0.000000
   73        0.346617   0.000000
   74        0.691546   0.000000
   75        0.894612   0.000000
   76        0.918910   0.000000
   77        1.001222   0.000000
   78        1.079266   0.000000
 
 -0.4000000E+00  0.4000000E+00  0.0000000E+00  0.8000000E-01
    1      -22.977785   1.000000
    2      -22.837373   1.000000
    3      -22.525908   1.000000
    4      -21.711216   1.000000
    5      -21.235700   1.000000
    6      -20.973318   1.000000
    7      -20.378785   1.000000
    8      -20.207261   1.000000
    9      -20.049331   1.000000
   10      -19.800414   1.000000
   11      -19.512388   1.000000
   12      -18.869494   1.000000
   13      -17.976889   1.000000
   14      -17.710272   1.000000
   15      -17.243102   1.000000
   16      -16.663746   1.000000
   17      -16.452633   1.000000
   18      -16.390101   1.000000
   19      -16.177243   1.000000
   20      -15.413176   1.000000
   21      -15.045977   1.000000
   22      -14.726859   1.000000