       N       E                     dE             d eps       ncg     rms          rms(c)
DAV:   1     0.145441896845E+04    0.14544E+04   -0.42822E+04  2364   0.146E+03
DAV:   2     0.210252529630E+03   -0.12442E+04   -0.11613E+04  3408   0.224E+02
DAV:   3    -0.260047397577E+03   -0.47030E+03   -0.46325E+03  2628   0.143E+02
DAV:   4    -0.296705256496E+03   -0.36658E+02   -0.36058E+02  2688   0.550E+01
DAV:   5    -0.297552512672E+03   -0.84726E+00   -0.83014E+00  2616   0.836E+00    0.248E+01
DAV:   6    -0.283608165687E+03    0.13944E+02   -0.22127E+01  2430   0.129E+01    0.148E+01
DAV:   7    -0.279631863994E+03    0.39763E+01   -0.30068E+01  2442   0.132E+01    0.709E+00
DAV:   8    -0.278411567286E+03    0.12203E+01   -0.43345E+00  2352   0.762E+00    0.372E+00
DAV:   9    -0.278260668084E+03    0.15090E+00   -0.25412E+00  2424   0.474E+00    0.177E+00
DAV:  10    -0.278197538941E+03    0.63129E-01   -0.37709E-01  2190   0.222E+00    0.118E+00
DAV:  11    -0.278166171489E+03    0.31367E-01   -0.10165E-01  2634   0.949E-01    0.734E-01
DAV:  12    -0.278157968228E+03    0.82033E-02   -0.31693E-02  2172   0.540E-01    0.563E-01
DAV:  13    -0.278161992115E+03   -0.40239E-02   -0.17923E-01  2154   0.508E-01    0.123E+00
DAV:  14    -0.278151996843E+03    0.99953E-02   -0.23760E-02  2148   0.282E-01    0.676E-01
DAV:  15    -0.278151399649E+03    0.59719E-03   -0.20592E-02  2424   0.123E-01    0.385E-01
DAV:  16    -0.278154831054E+03   -0.34314E-02   -0.24601E-02  2124   0.187E-01    0.109E+00
DAV:  17    -0.278161800971E+03   -0.69699E-02   -0.25140E-01  2118   0.391E-01    0.616E-01
DAV:  18    -0.278166024148E+03   -0.42232E-02   -0.43673E-03  2076   0.209E-01    0.657E-01
DAV:  19    -0.278166152398E+03   -0.12825E-03   -0.92835E-04  2076   0.109E-01    0.613E-01
DAV:  20    -0.278166482031E+03   -0.32963E-03   -0.84173E-04  2100   0.944E-02    0.570E-01
DAV:  21    -0.278167408819E+03   -0.92679E-03   -0.51862E-04  2274   0.777E-02    0.533E-01
DAV:  22    -0.278168126207E+03   -0.71739E-03   -0.17227E-03  2088   0.178E-01    0.382E-01
DAV:  23    -0.278168856541E+03   -0.73033E-03   -0.36403E-02  2208   0.124E-01    0.632E-01
DAV:  24    -0.278168639492E+03    0.21705E-03   -0.24009E-04  2130   0.603E-02    0.598E-01
DAV:  25    -0.278169363171E+03   -0.72368E-03   -0.51746E-05  2358   0.247E-02    0.574E-01
DAV:  26    -0.278169331729E+03    0.31442E-04   -0.21097E-03  2010   0.170E-02    0.268E-01
DAV:  27    -0.278169331756E+03   -0.26446E-07   -0.52856E-06  2058   0.989E-03
   1 F= -.28068541E+03 E0= -.28068541E+03  d E =-.280685E+03
       N       E                     dE             d eps       ncg     rms          rms(c)
DAV:   1    -0.277288622112E+03    0.88071E+00   -0.80847E+01  2100   0.363E+01    0.363E+00
DAV:   2    -0.277335854375E+03   -0.47232E-01   -0.46447E+00  2502   0.690E+00    0.240E+00
DAV:   3    -0.277224081737E+03    0.11177E+00   -0.78712E-01  2316   0.271E+00    0.151E+00
DAV:   4    -0.277207305266E+03    0.16776E-01   -0.48159E-01  2466   0.164E+00    0.140E+00
DAV:   5    -0.277187714508E+03    0.19591E-01   -0.26454E-01  2298   0.103E+00    0.800E-01
DAV:   6    -0.277186958443E+03    0.75607E-03   -0.21972E-01  2388   0.825E-01    0.628E-01
DAV:   7    -0.277181558759E+03    0.53997E-02   -0.93448E-03  2256   0.384E-01    0.522E-01
DAV:   8    -0.277180039514E+03    0.15192E-02   -0.34733E-02  2310   0.280E-01    0.320E-01
DAV:   9    -0.277179984066E+03    0.55448E-04   -0.17452E-03  2130   0.147E-01    0.234E-01
DAV:  10    -0.277181070460E+03   -0.10864E-02   -0.12444E-03  2214   0.105E-01    0.392E-01
DAV:  11    -0.277180434394E+03    0.63607E-03   -0.26676E-02  2160   0.112E-01    0.608E-01
DAV:  12    -0.277179853382E+03    0.58101E-03   -0.16183E-02  2118   0.829E-02    0.218E-01
DAV:  13    -0.277180433033E+03   -0.57965E-03   -0.22522E-04  2142   0.525E-02    0.182E-01
DAV:  14    -0.277181156120E+03   -0.72309E-03   -0.26944E-04  2238   0.557E-02    0.131E-01
DAV:  15    -0.277181247537E+03   -0.91418E-04   -0.44128E-05  2376   0.240E-02    0.124E-01
DAV:  16    -0.277181190873E+03    0.56664E-04   -0.16577E-06  1440   0.516E-03    0.128E-01
DAV:  17    -0.277181358491E+03   -0.16762E-03   -0.10558E-05  1860   0.113E-02    0.120E-01
DAV:  18    -0.277182081121E+03   -0.72263E-03   -0.24638E-03  2220   0.615E-02    0.390E-01
DAV:  19    -0.277181645805E+03    0.43532E-03   -0.63605E-03  2268   0.467E-02    0.123E-01
DAV:  20    -0.277181443638E+03    0.20217E-03   -0.27031E-03  2040   0.179E-02    0.574E-01
DAV:  21    -0.277181614760E+03   -0.17112E-03   -0.96710E-06  2046   0.140E-02    0.556E-01
DAV:  22    -0.277181587491E+03    0.27269E-04   -0.10024E-03  1944   0.959E-03    0.140E-01
DAV:  23    -0.277181404683E+03    0.18281E-03   -0.21758E-03  2070   0.167E-02    0.577E-01
DAV:  24    -0.277181333948E+03    0.70735E-04   -0.17145E-05  2052   0.138E-02    0.582E-01
DAV:  25    -0.277182065447E+03   -0.73150E-03   -0.49910E-04  2064   0.474E-02    0.108E-01
DAV:  26    -0.277181885533E+03    0.17991E-03   -0.55338E-03  2106   0.515E-02    0.404E-01
DAV:  27    -0.277181577760E+03    0.30777E-03   -0.59085E-05  2052   0.306E-02    0.404E-01
DAV:  28    -0.277181932656E+03   -0.35490E-03   -0.62101E-04  2106   0.283E-02    0.984E-02
DAV:  29    -0.277182090995E+03   -0.15834E-03   -0.11295E-03  2070   0.209E-02    0.379E-01
DAV:  30    -0.277181982627E+03    0.10837E-03   -0.26100E-03  2034   0.174E-02    0.101E-01
DAV:  31    -0.277182385176E+03   -0.40255E-03   -0.25950E-04  2082   0.198E-02    0.528E-01
DAV:  32    -0.277182151740E+03    0.23344E-03   -0.32031E-03  2118   0.207E-02    0.206E-01
DAV:  33    -0.277182074238E+03    0.77502E-04   -0.47099E-04  1422   0.986E-03    0.381E-01
DAV:  34    -0.277181886949E+03    0.18729E-03   -0.22825E-03  2178   0.213E-02    0.103E-01
DAV:  35    -0.277182128871E+03   -0.24192E-03   -0.12150E-05  1902   0.127E-02    0.935E-02
DAV:  36    -0.277182143612E+03   -0.14742E-04   -0.63746E-04  1818   0.800E-03    0.377E-01
DAV:  37    -0.277181918464E+03    0.22515E-03   -0.26443E-03  2040   0.169E-02    0.104E-01
DAV:  38    -0.277182164321E+03   -0.24586E-03   -0.91429E-06  1716   0.111E-02    0.933E-02
DAV:  39    -0.277182219106E+03   -0.54786E-04   -0.29185E-04  1710   0.691E-03    0.374E-01
DAV:  40    -0.277181869621E+03    0.34948E-03   -0.33655E-03  2124   0.199E-02    0.107E-01
DAV:  41    -0.277182192784E+03   -0.32316E-03   -0.17816E-05  1992   0.148E-02    0.926E-02
DAV:  42    -0.277182238810E+03   -0.46026E-04   -0.18201E-06  1476   0.461E-03    0.900E-02
DAV:  43    -0.277182228701E+03    0.10109E-04   -0.25664E-07  1386   0.186E-03    0.906E-02
DAV:  44    -0.277182237404E+03   -0.87028E-05   -0.16204E-04  1278   0.206E-03    0.373E-01
DAV:  45    -0.277181903264E+03    0.33414E-03   -0.30901E-03  2064   0.177E-02    0.106E-01
DAV:  46    -0.277182185273E+03   -0.28201E-03   -0.13466E-05  1896   0.130E-02    0.933E-02
DAV:  47    -0.277182228654E+03   -0.43381E-04   -0.15144E-06  1530   0.422E-03    0.908E-02
DAV:  48    -0.277182232049E+03   -0.33948E-05   -0.14281E-04  1404   0.247E-03    0.373E-01
DAV:  49    -0.277181874877E+03    0.35717E-03   -0.34653E-03  2040   0.187E-02    0.108E-01
DAV:  50    -0.277182131286E+03   -0.25641E-03   -0.11819E-05  1842   0.124E-02    0.960E-02
DAV:  51    -0.277182196002E+03   -0.64715E-04   -0.21324E-06  1536   0.486E-03    0.922E-02
DAV:  52    -0.277182205647E+03   -0.96454E-05   -0.22853E-07  1326   0.192E-03    0.916E-02
DAV:  53    -0.277182226169E+03   -0.20522E-04   -0.99771E-05  1308   0.211E-03    0.373E-01
DAV:  54    -0.277181813882E+03    0.41229E-03   -0.44407E-03  2004   0.214E-02    0.112E-01
DAV:  55    -0.277182032418E+03   -0.21854E-03   -0.10204E-05  1830   0.122E-02    0.100E-01
DAV:  56    -0.277182177619E+03   -0.14520E-03   -0.56605E-06  1902   0.754E-03    0.929E-02
DAV:  57    -0.277182167987E+03    0.96316E-05   -0.48973E-07  1266   0.272E-03    0.933E-02
DAV:  58    -0.277182204685E+03   -0.36697E-04   -0.30349E-07  1338   0.196E-03    0.918E-02
DAV:  59    -0.277182239163E+03   -0.34479E-04   -0.39993E-07  1266   0.205E-03    0.903E-02
DAV:  60    -0.277182246467E+03   -0.73032E-05   -0.85409E-08  1314   0.117E-03    0.900E-02
DAV:  61    -0.277182246998E+03   -0.53181E-06   -0.17525E-08  1380   0.538E-04
   2 F= -.27973695E+03 E0= -.27973695E+03  d E =0.948459E+00
       N       E                     dE             d eps       ncg     rms          rms(c)
DAV:   1    -0.278221840831E+03   -0.10396E+01   -0.59786E+01  2028   0.311E+01    0.241E+00
DAV:   2    -0.278288428304E+03   -0.66587E-01   -0.27266E+00  2526   0.520E+00    0.191E+00
DAV:   3    -0.278205109652E+03    0.83319E-01   -0.20274E-01  2310   0.184E+00    0.125E+00
DAV:   4    -0.278213705737E+03   -0.85961E-02   -0.39953E-01  2634   0.118E+00    0.133E+00
DAV:   5    -0.278193109921E+03    0.20596E-01   -0.19878E-01  2268   0.855E-01    0.797E-01
DAV:   6    -0.278197659365E+03   -0.45494E-02   -0.21817E-01  2130   0.583E-01    0.110E+00
DAV:   7    -0.278188816387E+03    0.88430E-02   -0.60535E-02  2262   0.377E-01    0.440E-01
DAV:   8    -0.278190052541E+03   -0.12362E-02   -0.27409E-02  2160   0.194E-01    0.246E-01
DAV:   9    -0.278190947823E+03   -0.89528E-03   -0.12155E-02  2376   0.118E-01    0.924E-01
DAV:  10    -0.278189300330E+03    0.16475E-02   -0.30701E-02  2178   0.983E-02    0.197E-01
DAV:  11    -0.278188012356E+03    0.12880E-02   -0.14287E-02  2106   0.991E-02    0.532E-01
DAV:  12    -0.278189181441E+03   -0.11691E-02   -0.26701E-04  2148   0.613E-02    0.425E-01
DAV:  13    -0.278189582827E+03   -0.40139E-03   -0.64860E-03  2184   0.419E-02    0.171E-01
DAV:  14    -0.278189222674E+03    0.36015E-03   -0.29035E-03  2124   0.406E-02    0.426E-01
DAV:  15    -0.278189638428E+03   -0.41575E-03   -0.34366E-04  2124   0.216E-02    0.139E-01
DAV:  16    -0.278189686611E+03   -0.48183E-04   -0.12310E-03  2238   0.165E-02    0.391E-01
DAV:  17    -0.278189904346E+03   -0.21774E-03   -0.35517E-05  1926   0.117E-02    0.135E-01
DAV:  18    -0.278189966642E+03   -0.62296E-04   -0.17284E-04  1500   0.691E-03    0.121E-01
DAV:  19    -0.278189957255E+03    0.93869E-05   -0.10896E-03  1794   0.101E-02    0.375E-01
DAV:  20    -0.278190177914E+03   -0.22066E-03   -0.20738E-04  1668   0.970E-03    0.110E-01
DAV:  21    -0.278190133548E+03    0.44366E-04   -0.14204E-03  1770   0.110E-02    0.369E-01
DAV:  22    -0.278190383939E+03   -0.25039E-03   -0.43883E-06  1578   0.967E-03    0.348E-01
DAV:  23    -0.278190826769E+03   -0.44283E-03   -0.22124E-03  2028   0.158E-02    0.105E-01
DAV:  24    -0.278190961121E+03   -0.13435E-03   -0.72149E-06  2160   0.101E-02    0.104E-01
DAV:  25    -0.278191232917E+03   -0.27180E-03   -0.71326E-06  1662   0.878E-03    0.107E-01
DAV:  26    -0.278191311781E+03   -0.78864E-04   -0.61441E-06  1812   0.771E-03    0.105E-01
DAV:  27    -0.278191386211E+03   -0.74430E-04   -0.16696E-06  1374   0.450E-03    0.105E-01
DAV:  28    -0.278191361342E+03    0.24869E-04   -0.58489E-07  1386   0.266E-03    0.104E-01
DAV:  29    -0.278191365888E+03   -0.45454E-05   -0.25632E-07  1356   0.176E-03    0.103E-01
DAV:  30    -0.278191317012E+03    0.48876E-04   -0.46790E-07  1374   0.250E-03    0.100E-01
DAV:  31    -0.278191226359E+03    0.90653E-04   -0.20596E-04  1350   0.314E-03    0.315E-01
DAV:  32    -0.278191451972E+03   -0.22561E-03   -0.27081E-03  1914   0.137E-02    0.453E-01
DAV:  33    -0.278191429275E+03    0.22697E-04   -0.40808E-04  2274   0.152E-02    0.118E-01
DAV:  34    -0.278191347947E+03    0.81328E-04   -0.19857E-05  2118   0.152E-02    0.106E-01
DAV:  35    -0.278191195337E+03    0.15261E-03   -0.30089E-06  1500   0.635E-03    0.102E-01
DAV:  36    -0.278191215066E+03   -0.19729E-04   -0.71915E-07  1296   0.301E-03    0.101E-01
DAV:  37    -0.278191172098E+03    0.42968E-04   -0.82696E-07  1374   0.327E-03    0.979E-02
DAV:  38    -0.278191166839E+03    0.52585E-05   -0.13686E-05  1314   0.247E-03    0.302E-01
DAV:  39    -0.278191307943E+03   -0.14110E-03   -0.19846E-03  1728   0.108E-02    0.108E-01
DAV:  40    -0.278191143919E+03    0.16402E-03   -0.53005E-06  1686   0.927E-03    0.956E-02
DAV:  41    -0.278191124938E+03    0.18981E-04   -0.22256E-04  1320   0.351E-03    0.319E-01
DAV:  42    -0.278191364739E+03   -0.23980E-03   -0.24046E-03  1878   0.127E-02    0.109E-01
DAV:  43    -0.278191156923E+03    0.20782E-03   -0.46195E-06  1746   0.980E-03    0.980E-02
DAV:  44    -0.278191166514E+03   -0.95918E-05   -0.68878E-07  1308   0.301E-03    0.973E-02
DAV:  45    -0.278191169235E+03   -0.27210E-05   -0.19027E-07  1368   0.157E-03    0.968E-02
DAV:  46    -0.278191173491E+03   -0.42560E-05   -0.50303E-05  1254   0.148E-03    0.316E-01
DAV:  47    -0.278191297582E+03   -0.12409E-03   -0.20976E-03  1824   0.114E-02    0.108E-01
DAV:  48    -0.278191187897E+03    0.10968E-03   -0.40786E-06  1506   0.849E-03    0.989E-02
DAV:  49    -0.278191182705E+03    0.51918E-05   -0.67000E-07  1314   0.293E-03    0.977E-02
DAV:  50    -0.278191170016E+03    0.12689E-04   -0.22733E-05  1326   0.198E-03    0.316E-01
DAV:  51    -0.278191267999E+03   -0.97983E-04   -0.18143E-03  1542   0.101E-02    0.106E-01
DAV:  52    -0.278191209863E+03    0.58136E-04   -0.27515E-06  1398   0.700E-03    0.996E-02
DAV:  53    -0.278191198097E+03    0.11766E-04   -0.68776E-07  1344   0.289E-03    0.978E-02
DAV:  54    -0.278191191165E+03    0.69320E-05   -0.17484E-07  1266   0.165E-03    0.970E-02
DAV:  55    -0.278191177317E+03    0.13847E-04   -0.12253E-04  1440   0.130E-03    0.317E-01
DAV:  56    -0.278191247389E+03   -0.70071E-04   -0.15771E-03  1536   0.977E-03    0.105E-01
DAV:  57    -0.278191205691E+03    0.41698E-04   -0.32924E-06  1416   0.734E-03    0.983E-02
DAV:  58    -0.278191201412E+03    0.42790E-05   -0.33710E-07  1308   0.222E-03    0.977E-02
DAV:  59    -0.278191189779E+03    0.11632E-04   -0.47871E-05  1338   0.155E-03    0.316E-01
DAV:  60    -0.278191243843E+03   -0.54063E-04   -0.14222E-03  1434   0.870E-03    0.104E-01
DAV:  61    -0.278191218440E+03    0.25402E-04   -0.16098E-06  1260   0.565E-03    0.995E-02
DAV:  62    -0.278191205781E+03    0.12660E-04   -0.32920E-07  1254   0.227E-03    0.981E-02
DAV:  63    -0.278191167854E+03    0.37926E-04   -0.35039E-04  1320   0.342E-03    0.319E-01
DAV:  64    -0.278191300655E+03   -0.13280E-03   -0.23373E-03  1878   0.138E-02    0.108E-01
DAV:  65    -0.278191222681E+03    0.77974E-04   -0.47430E-06  1476   0.891E-03    0.100E-01
DAV:  66    -0.278191188870E+03    0.33811E-04   -0.13926E-04  1566   0.495E-03    0.317E-01
DAV:  67    -0.278191282469E+03   -0.93600E-04   -0.20875E-03  1824   0.120E-02    0.107E-01
DAV:  68    -0.278191226859E+03    0.55611E-04   -0.42819E-06  1500   0.833E-03    0.998E-02
DAV:  69    -0.278191211668E+03    0.15191E-04   -0.88000E-07  1326   0.323E-03    0.979E-02
DAV:  70    -0.278191198279E+03    0.13388E-04   -0.76729E-05  1314   0.213E-03    0.316E-01
DAV:  71    -0.278191301834E+03   -0.10355E-03   -0.25085E-03  1896   0.137E-02    0.109E-01
DAV:  72    -0.278191240766E+03    0.61069E-04   -0.55320E-06  1632   0.924E-03    0.101E-01
DAV:  73    -0.278191220285E+03    0.20481E-04   -0.16051E-06  1434   0.411E-03    0.983E-02
DAV:  74    -0.278191201833E+03    0.18452E-04   -0.11705E-04  1314   0.274E-03    0.316E-01
DAV:  75    -0.278191317573E+03   -0.11574E-03   -0.28877E-03  1950   0.158E-02    0.111E-01
DAV:  76    -0.278191235439E+03    0.82135E-04   -0.10338E-05  1830   0.121E-02    0.100E-01
DAV:  77    -0.278191168893E+03    0.66546E-04   -0.54879E-04  1818   0.697E-03    0.321E-01
DAV:  78    -0.278191184924E+03   -0.16032E-04   -0.70763E-07  1236   0.522E-03    0.319E-01
DAV:  79    -0.278191206449E+03   -0.21524E-04   -0.23181E-07  1272   0.216E-03    0.316E-01
DAV:  80    -0.278191208271E+03   -0.18228E-05   -0.11979E-07  1254   0.132E-03    0.315E-01
DAV:  81    -0.278191212788E+03   -0.45160E-05   -0.67155E-05  1380   0.111E-03    0.973E-02
DAV:  82    -0.278191204323E+03    0.84642E-05   -0.32676E-04  1272   0.503E-03    0.317E-01
DAV:  83    -0.278191221915E+03   -0.17592E-04   -0.71475E-05  1254   0.364E-03    0.974E-02
DAV:  84    -0.278191209392E+03    0.12523E-04   -0.25906E-04  1254   0.359E-03    0.317E-01
DAV:  85    -0.278191222486E+03   -0.13094E-04   -0.12512E-04  1254   0.363E-03    0.977E-02
DAV:  86    -0.278191215225E+03    0.72610E-05   -0.18249E-04  1248   0.353E-03    0.316E-01
DAV:  87    -0.278191221957E+03   -0.67325E-05   -0.17168E-04  1236   0.355E-03    0.978E-02
DAV:  88    -0.278191224930E+03   -0.29729E-05   -0.39409E-05  1254   0.334E-03    0.314E-01
DAV:  89    -0.278191226398E+03   -0.14673E-05   -0.33674E-04  1296   0.369E-03    0.986E-02
DAV:  90    -0.278191232974E+03   -0.65766E-05   -0.26253E-07  1296   0.351E-03    0.976E-02
DAV:  91    -0.278191228325E+03    0.46495E-05   -0.42051E-08  1296   0.171E-03    0.973E-02
DAV:  92    -0.278191226465E+03    0.18599E-05   -0.15602E-06  1278   0.622E-04    0.295E-01
DAV:  93    -0.278191270534E+03   -0.44070E-04   -0.15464E-05  1266   0.538E-03    0.301E-01
DAV:  94    -0.278191231409E+03    0.39125E-04   -0.10303E-04  1266   0.345E-03    0.975E-02
DAV:  95    -0.278191243265E+03   -0.11855E-04   -0.55693E-07  1296   0.417E-03    0.984E-02
DAV:  96    -0.278191242903E+03    0.36210E-06   -0.60101E-08  1278   0.138E-03
   3 F= -.28072401E+03 E0= -.28072401E+03  d E =-.987065E+00
       N       E                     dE             d eps       ncg     rms          rms(c)
DAV:   1    -0.278030879626E+03    0.16036E+00   -0.28887E+01  2028   0.212E+01    0.170E+00
DAV:   2    -0.278043338945E+03   -0.12459E-01   -0.11422E+00  2496   0.364E+00    0.161E+00
DAV:   3    -0.278032738218E+03    0.10601E-01   -0.63206E-01  2172   0.144E+00    0.109E+00
DAV:   4    -0.278008520011E+03    0.24218E-01   -0.74363E-02  2340   0.869E-01    0.709E-01
DAV:   5    -0.278007829257E+03    0.69075E-03   -0.85483E-02  2442   0.670E-01    0.718E-01
DAV:   6    -0.278006284378E+03    0.15449E-02   -0.99276E-02  2322   0.443E-01    0.530E-01
DAV:   7    -0.278003961129E+03    0.23232E-02   -0.96640E-03  2394   0.254E-01    0.398E-01
DAV:   8    -0.278005761329E+03   -0.18002E-02   -0.20046E-02  2148   0.171E-01    0.306E-01
DAV:   9    -0.278005669636E+03    0.91693E-04   -0.91134E-03  2406   0.131E-01    0.643E-01
DAV:  10    -0.278004315322E+03    0.13543E-02   -0.24215E-02  2202   0.102E-01    0.276E-01
DAV:  11    -0.278005466907E+03   -0.11516E-02   -0.19865E-03  2124   0.628E-02    0.247E-01
DAV:  12    -0.278004980892E+03    0.48602E-03   -0.67666E-03  2196   0.407E-02    0.238E-01
DAV:  13    -0.278005476280E+03   -0.49539E-03   -0.26943E-05  2166   0.243E-02    0.203E-01
DAV:  14    -0.278005624343E+03   -0.14806E-03   -0.99886E-06  2376   0.114E-02    0.191E-01
DAV:  15    -0.278005640816E+03   -0.16473E-04   -0.93173E-07  1638   0.369E-03    0.190E-01
DAV:  16    -0.278005778525E+03   -0.13771E-03   -0.41944E-04  1512   0.575E-03    0.242E-01
DAV:  17    -0.278005816214E+03   -0.37689E-04   -0.55588E-04  1842   0.102E-02    0.597E-01
DAV:  18    -0.278005407793E+03    0.40842E-03   -0.54139E-03  1962   0.202E-02    0.203E-01
DAV:  19    -0.278005547221E+03   -0.13943E-03   -0.58615E-06  1884   0.106E-02    0.195E-01
DAV:  20    -0.278005586115E+03   -0.38893E-04   -0.87494E-07  1338   0.347E-03    0.192E-01
DAV:  21    -0.278005693160E+03   -0.10705E-03   -0.97127E-04  1632   0.693E-03    0.242E-01
DAV:  22    -0.278005757296E+03   -0.64136E-04   -0.55019E-06  1806   0.863E-03    0.240E-01
DAV:  23    -0.278005785856E+03   -0.28560E-04   -0.12382E-06  1344   0.420E-03    0.240E-01
DAV:  24    -0.278005803033E+03   -0.17177E-04   -0.14820E-06  1344   0.319E-03    0.239E-01
DAV:  25    -0.278005734224E+03    0.68809E-04   -0.53828E-04  1314   0.358E-03    0.189E-01
DAV:  26    -0.278005868667E+03   -0.13444E-03   -0.34996E-03  1890   0.146E-02    0.613E-01
DAV:  27    -0.278005857381E+03    0.11287E-04   -0.15496E-04  2322   0.460E-02    0.641E-01
DAV:  28    -0.278005854947E+03    0.24333E-05   -0.29138E-05  2118   0.190E-02    0.643E-01
DAV:  29    -0.278005856505E+03   -0.15581E-05   -0.79721E-07  1608   0.372E-03    0.641E-01
DAV:  30    -0.278005797258E+03    0.59247E-04   -0.12030E-03  2100   0.299E-02    0.259E-01
DAV:  31    -0.278005709392E+03    0.87866E-04   -0.47765E-05  2208   0.230E-02    0.244E-01
DAV:  32    -0.278005692074E+03    0.17318E-04   -0.17780E-04  2160   0.121E-02    0.186E-01
DAV:  33    -0.278005806689E+03   -0.11462E-03   -0.25144E-03  2016   0.142E-02    0.247E-01
DAV:  34    -0.278005748984E+03    0.57705E-04   -0.41016E-06  1518   0.857E-03    0.243E-01
DAV:  35    -0.278005726916E+03    0.22069E-04   -0.10376E-06  1386   0.386E-03    0.241E-01
DAV:  36    -0.278005720706E+03    0.62101E-05   -0.22540E-07  1362   0.185E-03    0.241E-01
DAV:  37    -0.278005626572E+03    0.94134E-04   -0.74612E-04  1512   0.539E-03    0.193E-01
DAV:  38    -0.278005747418E+03   -0.12085E-03   -0.64349E-04  1488   0.804E-03    0.241E-01
DAV:  39    -0.278005611665E+03    0.13575E-03   -0.12565E-03  1434   0.866E-03    0.196E-01
DAV:  40    -0.278005684608E+03   -0.72943E-04   -0.10770E-06  1362   0.530E-03    0.192E-01
DAV:  41    -0.278005750387E+03   -0.65779E-04   -0.87892E-07  1320   0.347E-03    0.186E-01
DAV:  42    -0.278005749731E+03    0.65644E-06   -0.14413E-07  1458   0.166E-03
   4 F= -.28051517E+03 E0= -.28051517E+03  d E =0.208846E+00
       N       E                     dE             d eps       ncg     rms          rms(c)
DAV:   1    -0.278314979029E+03   -0.30923E+00   -0.18427E+01  2028   0.167E+01    0.193E+00
DAV:   2    -0.278303423228E+03    0.11556E-01   -0.17808E+00  2202   0.376E+00    0.135E+00
DAV:   3    -0.278239706311E+03    0.63717E-01   -0.14764E-01  2232   0.166E+00    0.821E-01
DAV:   4    -0.278247090899E+03   -0.73846E-02   -0.26579E-01  2550   0.903E-01    0.120E+00
DAV:   5    -0.278242784974E+03    0.43059E-02   -0.29710E-01  2196   0.759E-01    0.700E-01
DAV:   6    -0.278236934319E+03    0.58507E-02   -0.18040E-02  2136   0.386E-01    0.245E-01
DAV:   7    -0.278239169358E+03   -0.22350E-02   -0.34003E-02  2430   0.291E-01    0.763E-01
DAV:   8    -0.278236347063E+03    0.28223E-02   -0.31717E-02  2262   0.181E-01    0.344E-01
DAV:   9    -0.278237982068E+03   -0.16350E-02   -0.30861E-03  2082   0.830E-02    0.199E-01
DAV:  10    -0.278237677446E+03    0.30462E-03   -0.56418E-03  2154   0.556E-02    0.259E-01
DAV:  11    -0.278238496714E+03   -0.81927E-03   -0.73477E-03  2124   0.497E-02    0.539E-01
DAV:  12    -0.278238719730E+03   -0.22302E-03   -0.23782E-04  2250   0.261E-02    0.937E-01
DAV:  13    -0.278237829573E+03    0.89016E-03   -0.65032E-03  2208   0.355E-02    0.526E-01
DAV:  14    -0.278237747286E+03    0.82288E-04   -0.20195E-05  2118   0.159E-02    0.522E-01
DAV:  15    -0.278237723557E+03    0.23729E-04   -0.10180E-06  1524   0.413E-03    0.520E-01
DAV:  16    -0.278237634139E+03    0.89418E-04   -0.25261E-06  1656   0.560E-03    0.515E-01
DAV:  17    -0.278237515510E+03    0.11863E-03   -0.60350E-06  1896   0.881E-03    0.508E-01
DAV:  18    -0.278238635129E+03   -0.11196E-02   -0.17322E-04  2154   0.471E-02    0.565E-01
DAV:  19    -0.278238717314E+03   -0.82185E-04   -0.25021E-04  2268   0.167E-02    0.935E-01
DAV:  20    -0.278238684845E+03    0.32469E-04   -0.17503E-05  2076   0.150E-02    0.937E-01
DAV:  21    -0.278238721330E+03   -0.36485E-04   -0.87276E-05  2328   0.369E-02    0.966E-01
DAV:  22    -0.278238731121E+03   -0.97911E-05   -0.17935E-05  2238   0.155E-02    0.953E-01
DAV:  23    -0.278238761112E+03   -0.29990E-04   -0.21115E-06  1674   0.610E-03    0.954E-01
DAV:  24    -0.278239316624E+03   -0.55551E-03   -0.15519E-04  2370   0.501E-02    0.988E-01
DAV:  25    -0.278239244146E+03    0.72478E-04   -0.71236E-03  2208   0.609E-02    0.705E-01
DAV:  26    -0.278238050686E+03    0.11935E-02   -0.98838E-03  2106   0.716E-02    0.314E-01
DAV:  27    -0.278238630728E+03   -0.58004E-03   -0.39016E-03  2064   0.387E-02    0.489E-01
DAV:  28    -0.278238602143E+03    0.28585E-04   -0.21933E-03  2262   0.372E-02    0.635E-01
DAV:  29    -0.278236402039E+03    0.22001E-02   -0.22663E-02  2244   0.921E-02    0.304E-01
DAV:  30    -0.278236136290E+03    0.26575E-03   -0.12824E-03  2430   0.100E-01    0.332E-01
DAV:  31    -0.278236133266E+03    0.30241E-05   -0.11994E-04  2076   0.399E-02    0.330E-01
DAV:  32    -0.278236348534E+03   -0.21527E-03   -0.82598E-05  2250   0.255E-02    0.300E-01
DAV:  33    -0.278236828111E+03   -0.47958E-03   -0.20627E-04  2184   0.410E-02    0.252E-01
DAV:  34    -0.278236740279E+03    0.87832E-04   -0.29904E-05  2124   0.166E-02    0.264E-01
DAV:  35    -0.278237261386E+03   -0.52111E-03   -0.17589E-03  2148   0.238E-02    0.174E-01
DAV:  36    -0.278237354510E+03   -0.93125E-04   -0.25956E-05  2220   0.166E-02    0.171E-01
DAV:  37    -0.278237293971E+03    0.60539E-04   -0.21185E-05  1746   0.859E-03    0.966E-02
DAV:  38    -0.278237321753E+03   -0.27782E-04   -0.66395E-05  1332   0.530E-03    0.170E-01
DAV:  39    -0.278237253108E+03    0.68645E-04   -0.41929E-04  1392   0.604E-03    0.236E-01
DAV:  40    -0.278237395330E+03   -0.14222E-03   -0.20665E-03  1974   0.155E-02    0.176E-01
DAV:  41    -0.278237390336E+03    0.49944E-05   -0.29171E-06  1734   0.703E-03    0.176E-01
DAV:  42    -0.278237408474E+03   -0.18138E-04   -0.63899E-07  1272   0.334E-03    0.176E-01
DAV:  43    -0.278237310715E+03    0.97759E-04   -0.73912E-06  1800   0.934E-03    0.174E-01
DAV:  44    -0.278237306552E+03    0.41626E-05   -0.12647E-06  1548   0.413E-03    0.174E-01
DAV:  45    -0.278237324060E+03   -0.17508E-04   -0.20479E-07  1380   0.184E-03    0.174E-01
DAV:  46    -0.278237322710E+03    0.13498E-05   -0.29636E-08  1230   0.782E-04    0.174E-01
DAV:  47    -0.278237322250E+03    0.46062E-06   -0.33949E-07  1284   0.195E-03
   5 F= -.28076279E+03 E0= -.28076279E+03  d E =-.247620E+00
       N       E                     dE             d eps       ncg     rms          rms(c)
DAV:   1    -0.278202494126E+03    0.34829E-01   -0.48401E+00  2028   0.882E+00    0.116E+00
DAV:   2    -0.278196851500E+03    0.56426E-02   -0.70001E-01  2100   0.228E+00    0.128E+00
DAV:   3    -0.278187790256E+03    0.90612E-02   -0.34379E-01  2082   0.104E+00    0.774E-01
DAV:   4    -0.278170679364E+03    0.17111E-01   -0.22283E-02  2304   0.532E-01    0.345E-01
DAV:   5    -0.278171519446E+03   -0.84008E-03   -0.50142E-02  2352   0.531E-01    0.601E-01
DAV:   6    -0.278172439404E+03   -0.91996E-03   -0.32845E-02  2208   0.287E-01    0.207E-01
DAV:   7    -0.278170598843E+03    0.18406E-02   -0.22137E-03  2238   0.150E-01    0.123E-01
DAV:   8    -0.278170321395E+03    0.27745E-03   -0.87683E-04  2166   0.102E-01    0.824E-02
DAV:   9    -0.278170666825E+03   -0.34543E-03   -0.19073E-04  2190   0.558E-02    0.493E-02
DAV:  10    -0.278170513383E+03    0.15344E-03   -0.18392E-03  2214   0.326E-02    0.493E-01
DAV:  11    -0.278170465290E+03    0.48093E-04   -0.42896E-03  2100   0.276E-02    0.488E-02
DAV:  12    -0.278170501956E+03   -0.36667E-04   -0.14794E-05  2070   0.132E-02    0.487E-02
DAV:  13    -0.278170541383E+03   -0.39427E-04   -0.23698E-06  1452   0.532E-03    0.478E-02
DAV:  14    -0.278170601851E+03   -0.60468E-04   -0.14226E-06  1350   0.459E-03    0.448E-02
DAV:  15    -0.278170635855E+03   -0.34004E-04   -0.88254E-07  1362   0.337E-03    0.428E-02
DAV:  16    -0.278170659587E+03   -0.23732E-04   -0.56749E-07  1314   0.295E-03    0.411E-02
DAV:  17    -0.278170719946E+03   -0.60359E-04   -0.22346E-06  1482   0.529E-03    0.372E-02
DAV:  18    -0.278170741867E+03   -0.21921E-04   -0.78471E-07  1434   0.312E-03    0.356E-02
DAV:  19    -0.278170741487E+03    0.38033E-06   -0.13732E-07  1494   0.144E-03
   6 F= -.28071018E+03 E0= -.28071018E+03  d E =0.526109E-01
       N       E                     dE             d eps       ncg     rms          rms(c)
DAV:   1    -0.278240674273E+03   -0.69932E-01   -0.40980E+00  2028   0.804E+00    0.119E+00
DAV:   2    -0.278311319426E+03   -0.70645E-01   -0.11871E+00  2178   0.203E+00    0.145E+00
DAV:   3    -0.278243871845E+03    0.67448E-01   -0.84119E-02  2196   0.116E+00    0.835E-01
DAV:   4    -0.278236221453E+03    0.76504E-02   -0.22892E-02  2634   0.517E-01    0.670E-01
DAV:   5    -0.278237532425E+03   -0.13110E-02   -0.14283E-01  2172   0.431E-01    0.112E+00
DAV:   6    -0.278233983183E+03    0.35492E-02   -0.10086E-01  2136   0.388E-01    0.207E-01
DAV:   7    -0.278234171566E+03   -0.18838E-03   -0.13698E-02  2196   0.195E-01    0.414E-01
DAV:   8    -0.278233955615E+03    0.21595E-03   -0.14813E-03  2298   0.116E-01    0.404E-01
DAV:   9    -0.278234256317E+03   -0.30070E-03   -0.16349E-02  2142   0.101E-01    0.177E-01
DAV:  10    -0.278234578067E+03   -0.32175E-03   -0.26422E-04  2172   0.576E-02    0.153E-01
DAV:  11    -0.278234709574E+03   -0.13151E-03   -0.14366E-04  2232   0.409E-02    0.131E-01
DAV:  12    -0.278234703263E+03    0.63109E-05   -0.53070E-05  2340   0.256E-02    0.117E-01
DAV:  13    -0.278234676395E+03    0.26868E-04   -0.10398E-05  2316   0.124E-02    0.109E-01
DAV:  14    -0.278234549064E+03    0.12733E-03   -0.36425E-05  2046   0.232E-02    0.903E-02
DAV:  15    -0.278234494717E+03    0.54347E-04   -0.19677E-05  2352   0.142E-02    0.781E-02
DAV:  16    -0.278234285735E+03    0.20898E-03   -0.12070E-02  2166   0.596E-02    0.423E-01
DAV:  17    -0.278234407913E+03   -0.12218E-03   -0.87057E-05  2136   0.340E-02    0.375E-01
DAV:  18    -0.278234445874E+03   -0.37961E-04   -0.30068E-05  2160   0.172E-02    0.355E-01
DAV:  19    -0.278234454414E+03   -0.85394E-05   -0.32303E-06  2082   0.658E-03    0.353E-01
DAV:  20    -0.278234455202E+03   -0.78842E-06   -0.13982E-07  1482   0.133E-03
   7 F= -.28076389E+03 E0= -.28076389E+03  d E =-.537158E-01
       N       E                     dE             d eps       ncg     rms          rms(c)
DAV:   1    -0.278403195517E+03   -0.16874E+00   -0.17663E+00  2382   0.360E+00    0.178E+00
DAV:   2    -0.278295571517E+03    0.10762E+00   -0.15761E+00  2550   0.353E+00    0.120E+00
DAV:   3    -0.278237161299E+03    0.58410E-01   -0.10636E-01  2226   0.141E+00    0.637E-01
DAV:   4    -0.278242024156E+03   -0.48629E-02   -0.84521E-02  2376   0.577E-01    0.278E-01
DAV:   5    -0.278241653115E+03    0.37104E-03   -0.41288E-03  2400   0.237E-01    0.228E-01
DAV:   6    -0.278239439197E+03    0.22139E-02   -0.99441E-04  2436   0.132E-01    0.155E-01
DAV:   7    -0.278238038122E+03    0.14011E-02   -0.12258E-02  2202   0.850E-02    0.501E-01
DAV:   8    -0.278239813730E+03   -0.17756E-02   -0.30067E-03  2124   0.761E-02    0.146E-01
DAV:   9    -0.278239435129E+03    0.37860E-03   -0.74451E-03  2118   0.513E-02    0.355E-01
DAV:  10    -0.278239397878E+03    0.37251E-04   -0.59864E-05  2172   0.251E-02    0.340E-01
DAV:  11    -0.278239718063E+03   -0.32019E-03   -0.76042E-03  2214   0.614E-02    0.164E-01
DAV:  12    -0.278239705810E+03    0.12254E-04   -0.90938E-05  2142   0.367E-02    0.153E-01
DAV:  13    -0.278239682339E+03    0.23471E-04   -0.35653E-03  2250   0.305E-02    0.321E-01
DAV:  14    -0.278239962843E+03   -0.28050E-03   -0.27679E-03  2142   0.282E-02    0.155E-01
DAV:  15    -0.278239971727E+03   -0.88841E-05   -0.12123E-05  2064   0.134E-02    0.150E-01
DAV:  16    -0.278239966606E+03    0.51215E-05   -0.37223E-04  1836   0.691E-03    0.296E-01
DAV:  17    -0.278240051669E+03   -0.85063E-04   -0.29243E-03  2028   0.168E-02    0.157E-01
DAV:  18    -0.278240051161E+03    0.50751E-06   -0.11554E-05  1890   0.137E-02    0.151E-01
DAV:  19    -0.278240011661E+03    0.39500E-04   -0.70080E-04  1902   0.667E-03    0.298E-01
DAV:  20    -0.278240055345E+03   -0.43684E-04   -0.61756E-06  1416   0.648E-03    0.270E-01
DAV:  21    -0.278240060335E+03   -0.49905E-05   -0.88238E-04  1446   0.595E-03    0.152E-01
DAV:  22    -0.278240033965E+03    0.26370E-04   -0.77002E-04  1506   0.923E-03    0.299E-01
DAV:  23    -0.278240072083E+03   -0.38118E-04   -0.85248E-04  1500   0.821E-03    0.152E-01
DAV:  24    -0.278240064682E+03    0.74002E-05   -0.21571E-06  1320   0.507E-03    0.143E-01
DAV:  25    -0.278240061061E+03    0.36219E-05   -0.74356E-07  1332   0.203E-03    0.130E-01
DAV:  26    -0.278240054735E+03    0.63255E-05   -0.15287E-04  1398   0.124E-03    0.293E-01
DAV:  27    -0.278240082816E+03   -0.28081E-04   -0.11847E-03  1506   0.816E-03    0.153E-01
DAV:  28    -0.278240074783E+03    0.80329E-05   -0.15912E-06  1332   0.593E-03    0.149E-01
DAV:  29    -0.278240066007E+03    0.87756E-05   -0.48014E-05  1302   0.265E-03    0.274E-01
DAV:  30    -0.278240092381E+03   -0.26374E-04   -0.12488E-03  1434   0.817E-03    0.153E-01
DAV:  31    -0.278240075567E+03    0.16814E-04   -0.36485E-06  1344   0.676E-03    0.142E-01
DAV:  32    -0.278240071947E+03    0.36199E-05   -0.23884E-07  1308   0.213E-03    0.142E-01
DAV:  33    -0.278240076407E+03   -0.44606E-05   -0.21520E-06  1332   0.101E-03    0.149E-01
DAV:  34    -0.278240073443E+03    0.29645E-05   -0.36394E-07  1290   0.745E-04    0.146E-01
DAV:  35    -0.278240074020E+03   -0.57682E-06   -0.28540E-08  1350   0.346E-04
   8 F= -.28076790E+03 E0= -.28076790E+03  d E =-.401100E-02
       N       E                     dE             d eps       ncg     rms          rms(c)
DAV:   1    -0.278269481270E+03   -0.29408E-01   -0.64850E-01  2136   0.276E+00    0.903E-01
DAV:   2    -0.278260123515E+03    0.93578E-02   -0.52060E-01  2286   0.175E+00    0.126E+00
DAV:   3    -0.278251450557E+03    0.86730E-02   -0.31148E-01  2088   0.896E-01    0.766E-01
DAV:   4    -0.278241411442E+03    0.10039E-01   -0.22472E-02  2178   0.369E-01    0.314E-01
DAV:   5    -0.278239941289E+03    0.14702E-02   -0.26829E-03  2370   0.179E-01    0.254E-01
DAV:   6    -0.278239008094E+03    0.93319E-03   -0.12976E-03  2460   0.125E-01    0.151E-01
DAV:   7    -0.278239413911E+03   -0.40582E-03   -0.72779E-04  2160   0.963E-02    0.116E-01
DAV:   8    -0.278238506977E+03    0.90693E-03   -0.23709E-03  2142   0.754E-02    0.498E-01
DAV:   9    -0.278238889563E+03   -0.38259E-03   -0.12291E-02  2154   0.735E-02    0.963E-02
DAV:  10    -0.278237963217E+03    0.92635E-03   -0.16868E-04  2232   0.438E-02    0.102E-01
DAV:  11    -0.278238731448E+03   -0.76823E-03   -0.51946E-05  2160   0.262E-02    0.790E-02
DAV:  12    -0.278238800384E+03   -0.68936E-04   -0.22050E-05  2226   0.158E-02    0.385E-02
DAV:  13    -0.278238823095E+03   -0.22712E-04   -0.62570E-06  1890   0.902E-03    0.795E-02
DAV:  14    -0.278238813870E+03    0.92252E-05   -0.52292E-06  1482   0.819E-03    0.322E-02
DAV:  15    -0.278238852626E+03   -0.38755E-04   -0.62250E-06  1872   0.804E-03    0.261E-02
DAV:  16    -0.278238960769E+03   -0.10814E-03   -0.24505E-06  1350   0.539E-03    0.773E-02
DAV:  17    -0.278238776929E+03    0.18384E-03   -0.12741E-06  1356   0.418E-03    0.236E-02
DAV:  18    -0.278238898030E+03   -0.12110E-03   -0.20270E-06  1344   0.488E-03    0.171E-02
DAV:  19    -0.278238872951E+03    0.25078E-04   -0.15470E-06  1428   0.409E-03    0.137E-02
DAV:  20    -0.278238912907E+03   -0.39956E-04   -0.22057E-06  1350   0.501E-03    0.987E-03
DAV:  21    -0.278238914953E+03   -0.20463E-05   -0.11791E-06  1398   0.379E-03    0.787E-03
DAV:  22    -0.278238912377E+03    0.25759E-05   -0.20624E-07  1446   0.180E-03    0.793E-03
DAV:  23    -0.278238906878E+03    0.54993E-05   -0.69983E-08  1356   0.997E-04    0.788E-03
DAV:  24    -0.278238938385E+03   -0.31507E-04   -0.10816E-06  1320   0.352E-03    0.490E-03
DAV:  25    -0.278238932012E+03    0.63729E-05   -0.13940E-06  1392   0.390E-03    0.405E-03
DAV:  26    -0.278238935797E+03   -0.37845E-05   -0.25135E-07  1482   0.198E-03    0.360E-03
DAV:  27    -0.278238935905E+03   -0.10830E-06   -0.48778E-08  1464   0.842E-04
   9 F= -.28076586E+03 E0= -.28076586E+03  d E =0.203902E-02
       N       E                     dE             d eps       ncg     rms          rms(c)
DAV:   1    -0.278242161079E+03   -0.32253E-02   -0.19059E-01  2070   0.169E+00    0.423E-01
DAV:   2    -0.278251468102E+03   -0.93070E-02   -0.23104E-01  2250   0.671E-01    0.121E+00
DAV:   3    -0.278245117227E+03    0.63509E-02   -0.14173E-01  2118   0.465E-01    0.424E-01
DAV:   4    -0.278241617639E+03    0.34996E-02   -0.67815E-03  2340   0.272E-01    0.190E-01
DAV:   5    -0.278241138271E+03    0.47937E-03   -0.19742E-03  2346   0.154E-01    0.138E-01
DAV:   6    -0.278242243964E+03   -0.11057E-02   -0.10783E-03  2250   0.112E-01    0.143E-01
DAV:   7    -0.278241974160E+03    0.26980E-03   -0.37055E-03  2118   0.560E-02    0.365E-01
DAV:   8    -0.278241680853E+03    0.29331E-03   -0.10553E-02  2244   0.871E-02    0.128E-01
DAV:   9    -0.278241734894E+03   -0.54041E-04   -0.96369E-05  2058   0.343E-02    0.125E-01
DAV:  10    -0.278240379624E+03    0.13553E-02   -0.16772E-05  2112   0.160E-02    0.145E-01
DAV:  11    -0.278241766019E+03   -0.13864E-02   -0.17929E-05  2100   0.150E-02    0.121E-01
DAV:  12    -0.278240929052E+03    0.83697E-03   -0.13711E-05  1986   0.132E-02    0.886E-02
DAV:  13    -0.278241766216E+03   -0.83716E-03   -0.35120E-06  1626   0.683E-03    0.110E-01
DAV:  14    -0.278241119656E+03    0.64656E-03   -0.19252E-06  1350   0.538E-03    0.750E-02
DAV:  15    -0.278241746854E+03   -0.62720E-03   -0.12496E-06  1266   0.403E-03    0.106E-01
DAV:  16    -0.278240562420E+03    0.11844E-02   -0.33971E-06  1452   0.624E-03    0.104E-01
DAV:  17    -0.278240621144E+03   -0.58725E-04   -0.15886E-06  1260   0.489E-03    0.100E-01
DAV:  18    -0.278241773526E+03   -0.11524E-02   -0.22979E-06  1392   0.545E-03    0.102E-01
DAV:  19    -0.278241778298E+03   -0.47719E-05   -0.25714E-06  1260   0.474E-03    0.980E-02
DAV:  20    -0.278241785075E+03   -0.67773E-05   -0.32246E-06  1356   0.349E-03    0.945E-02
DAV:  21    -0.278241782262E+03    0.28135E-05   -0.35843E-06  1284   0.303E-03    0.102E-01
DAV:  22    -0.278240908727E+03    0.87353E-03   -0.68796E-06  1266   0.499E-03    0.856E-02
DAV:  23    -0.278241772065E+03   -0.86334E-03   -0.15246E-05  1254   0.392E-03    0.975E-02
DAV:  24    -0.278240323632E+03    0.14484E-02   -0.82394E-05  1416   0.608E-03    0.357E-01
DAV:  25    -0.278241757005E+03   -0.14334E-02   -0.22458E-03  2016   0.187E-02    0.110E-01
DAV:  26    -0.278240594522E+03    0.11625E-02   -0.36834E-06  1536   0.832E-03    0.104E-01
DAV:  27    -0.278241791557E+03   -0.11970E-02   -0.52317E-06  1476   0.788E-03    0.107E-01
DAV:  28    -0.278241801708E+03   -0.10151E-04   -0.55468E-06  1812   0.770E-03    0.101E-01
DAV:  29    -0.278241052231E+03    0.74948E-03   -0.62641E-06  1362   0.390E-03    0.797E-02
DAV:  30    -0.278240894273E+03    0.15796E-03   -0.54950E-05  1278   0.590E-03    0.797E-02
DAV:  31    -0.278240940950E+03   -0.46677E-04   -0.56028E-07  1236   0.271E-03    0.759E-02
DAV:  32    -0.278240302121E+03    0.63883E-03   -0.10968E-03  1710   0.937E-03    0.478E-01
DAV:  33    -0.278241750920E+03   -0.14488E-02   -0.49581E-03  2154   0.324E-02    0.116E-01
DAV:  34    -0.278241788709E+03   -0.37789E-04   -0.97116E-06  1938   0.129E-02    0.109E-01
DAV:  35    -0.278241788776E+03   -0.67526E-07   -0.24663E-06  1476   0.569E-03
  10 F= -.28077039E+03 E0= -.28077039E+03  d E =-.452161E-02
