 vasp.5.4.4.18Apr17-6-g9f103f2a35 (build Jan 12 2023 11:40:15) complex          
  
 executed on             LinuxIFC date 2023.12.04  11:08:20
 running on   48 total cores
 distrk:  each k-point on   48 cores,    1 groups
 distr:  one band on NCORES_PER_BAND=   8 cores,    6 groups


--------------------------------------------------------------------------------------------------------


 INCAR:
 POTCAR:    PAW_PBE C 08Apr2002                   
 POTCAR:    PAW_PBE C 08Apr2002                   
   SHA256 =  253f7b50bb8d59471dbedb8285d89021f4a42ed1a2c5d38a03a736e69125dd95 C/
   COPYR  = (c) Copyright 08Apr2002 Georg Kresse                                
   COPYR  = This file is part of the software VASP. Any use, copying, and all ot
   COPYR  = If you do not have a valid VASP license, you may not use, copy or di
   VRHFIN =C: s2p2                                                              
   LEXCH  = PE                                                                  
   EATOM  =   147.1560 eV,   10.8157 Ry                                         
                                                                                
   TITEL  = PAW_PBE C 08Apr2002                                                 
   LULTRA =        F    use ultrasoft PP ?                                      
   IUNSCR =        1    unscreen: 0-lin 1-nonlin 2-no                           
   RPACOR =    1.200    partial core radius                                     
   POMASS =   12.011; ZVAL   =    4.000    mass and valenz                      
   RCORE  =    1.500    outmost cutoff radius                                   
   RWIGS  =    1.630; RWIGS  =    0.863    wigner-seitz radius (au A)           
   ENMAX  =  400.000; ENMIN  =  300.000 eV                                      
   ICORE  =        2    local potential                                         
   LCOR   =        T    correct aug charges                                     
   LPAW   =        T    paw PP                                                  
   EAUG   =  644.873                                                            
   DEXC   =    0.000                                                            
   RMAX   =    1.529    core radius for proj-oper                               
   RAUG   =    1.300    factor for augmentation sphere                          
   RDEP   =    1.501    radius for radial grids                                 
   RDEPT  =    1.300    core radius for aug-charge                              
                                                                                
   Atomic configuration                                                         
    4 entries                                                                   
     n  l   j            E        occ.                                          
     1  0  0.50      -273.3789   2.0000                                         
     2  0  0.50       -13.7508   2.0000                                         
     2  1  0.50        -5.2854   2.0000                                         
     3  2  1.50        -5.4423   0.0000                                         
   Description                                                                  
     l       E           TYP  RCUT    TYP  RCUT                                 
     0    -13.7508458     23  1.200                                             
     0     -8.2022199     23  1.200                                             
     1     -5.2854383     23  1.500                                             
     1     34.0145650     23  1.500                                             
     2     -5.4423304      7  1.500                                             
  local pseudopotential read in
  partial core-charges read in
  partial kinetic energy density read in
  atomic valenz-charges read in
  non local Contribution for L=           0  read in
    real space projection operators read in
  non local Contribution for L=           0  read in
    real space projection operators read in
  non local Contribution for L=           1  read in
    real space projection operators read in
  non local Contribution for L=           1  read in
    real space projection operators read in
    PAW grid and wavefunctions read in
 
   number of l-projection  operators is LMAX  =           4
   number of lm-projection operators is LMMAX =           8
 

 ----------------------------------------------------------------------------- 
|                                                                             |
|  ADVICE TO THIS USER RUNNING 'VASP/VAMP'   (HEAR YOUR MASTER'S VOICE ...):  |
|                                                                             |
|      You have a (more or less) 'large supercell' and for larger cells       |
|      it might be more efficient to use real space projection opertators     |
|      So try LREAL= Auto  in the INCAR   file.                               |
|      Mind:          For very  accurate calculation you might also keep the  |
|      reciprocal projection scheme          (i.e. LREAL=.FALSE.)             |
|                                                                             |
 ----------------------------------------------------------------------------- 

  PAW_PBE C 08Apr2002                   :
 energy of atom  1       EATOM= -147.1560
 kinetic energy error for atom=    0.0012 (will be added to EATOM!!)
 
 
 POSCAR: POSCAR file written by OVITO Basic 3.7.8
  positions in direct lattice
  velocities in cartesian coordinates
 exchange correlation table for  LEXCH =        8
   RHO(1)=    0.500       N(1)  =     2000
   RHO(2)=  100.500       N(2)  =     4000
 


--------------------------------------------------------------------------------------------------------


 ion  position               nearest neighbor table
   1  0.001  0.000  0.440-   2 1.40  25 1.43   8 1.43
   2  0.083  0.083  0.440-   1 1.40   9 1.42   3 1.42
   3  0.001  0.250  0.440-   4 1.42  27 1.42   2 1.42
   4  0.083  0.334  0.440-   5 1.41  11 1.42   3 1.42
   5  0.000  0.499  0.440-   4 1.41  29 1.42   6 1.43
   6  0.084  0.583  0.440-   7 1.42   5 1.43  13 1.45
   7  1.000  0.750  0.440-  31 1.42   6 1.42   8 1.43
   8  0.084  0.833  0.440-   1 1.43   7 1.43  15 1.45
   9  0.249  0.001  0.440-  10 1.42  16 1.42   2 1.42
  10  0.334  0.083  0.440-  17 1.41  11 1.42   9 1.42
  11  0.249  0.249  0.440-   4 1.42  10 1.42  12 1.43
  12  0.333  0.333  0.440-  19 1.41  13 1.41  11 1.43
  13  0.254  0.498  0.440-  14 1.40  12 1.41   6 1.45
  14  0.331  0.584  0.440-  13 1.40  15 1.40
  15  0.254  0.748  0.440-  14 1.40  16 1.41   8 1.45
  16  0.332  0.835  0.440-  15 1.41  22 1.41   9 1.42
  17  0.499  0.000  0.440-  10 1.41  23 1.42  18 1.43
  18  0.583  0.084  0.440-  24 1.42  17 1.43  19 1.45
  19  0.498  0.253  0.440-  20 1.39  12 1.41  18 1.45
  20  0.584  0.330  0.440-  19 1.39  26 1.40
  21  0.585  0.585  0.440-  28 1.39  22 1.39
  22  0.498  0.748  0.440-  21 1.39  16 1.41  23 1.44
  23  0.583  0.833  0.440-  17 1.42  30 1.43  22 1.44
  24  0.750  1.000  0.440-  31 1.42  18 1.42  25 1.43
  25  0.833  0.084  0.440-   1 1.43  24 1.43  26 1.45
  26  0.748  0.254  0.440-  20 1.40  27 1.41  25 1.45
  27  0.834  0.333  0.440-  26 1.41  28 1.42   3 1.42
  28  0.748  0.498  0.440-  21 1.39  27 1.42  29 1.44
  29  0.833  0.583  0.440-   5 1.42  30 1.43  28 1.44
  30  0.750  0.750  0.440-  31 1.42  23 1.43  29 1.43
  31  0.833  0.833  0.440-   7 1.42  24 1.42  30 1.42
 

IMPORTANT INFORMATION: All symmetrisations will be switched off!
NOSYMM: (Re-)initialisation of all symmetry stuff for point group C_1.

 
 

Automatic generation of k-mesh.
 generate k-points for:    5    5    1
Space group operators:
 irot       det(A)        alpha          n_x          n_y          n_z        tau_x        tau_y        tau_z
    1     1.000000     0.000000     1.000000     0.000000     0.000000     0.000000     0.000000     0.000000
 
 Subroutine IBZKPT returns following result:
 ===========================================
 
 Found     13 irreducible k-points:
 
 Following reciprocal coordinates:
            Coordinates               Weight
  0.000000  0.000000  0.000000      1.000000
  0.200000  0.000000  0.000000      2.000000
  0.400000  0.000000  0.000000      2.000000
  0.000000  0.200000  0.000000      2.000000
  0.200000  0.200000  0.000000      2.000000
  0.400000  0.200000  0.000000      2.000000
 -0.400000  0.200000  0.000000      2.000000
 -0.200000  0.200000  0.000000      2.000000
  0.000000  0.400000  0.000000      2.000000
  0.200000  0.400000  0.000000      2.000000
  0.400000  0.400000  0.000000      2.000000
 -0.400000  0.400000  0.000000      2.000000
 -0.200000  0.400000  0.000000      2.000000
 
 Following cartesian coordinates:
            Coordinates               Weight
  0.000000  0.000000  0.000000      1.000000
  0.020311 -0.011741  0.000000      2.000000
  0.040623 -0.023482  0.000000      2.000000
  0.000000  0.023451  0.000000      2.000000
  0.020311  0.011710  0.000000      2.000000
  0.040623 -0.000032  0.000000      2.000000
 -0.040623  0.046933  0.000000      2.000000
 -0.020311  0.035192  0.000000      2.000000
  0.000000  0.046902  0.000000      2.000000
  0.020311  0.035160  0.000000      2.000000
  0.040623  0.023419  0.000000      2.000000
 -0.040623  0.070384  0.000000      2.000000
 -0.020311  0.058643  0.000000      2.000000
 
 TETIRR: Found     72 inequivalent tetrahedra from      150


--------------------------------------------------------------------------------------------------------




 Dimension of arrays:
   k-points           NKPTS =     13   k-points in BZ     NKDIM =     13   number of bands    NBANDS=     78
   number of dos      NEDOS =    301   number of ions     NIONS =     31
   non local maximal  LDIM  =      4   non local SUM 2l+1 LMDIM =      8
   total plane-waves  NPLWV = ******
   max r-space proj   IRMAX =      1   max aug-charges    IRDMAX=  12631
   dimension x,y,z NGX =    96 NGY =   96 NGZ =  480
   dimension x,y,z NGXF=   192 NGYF=  192 NGZF=  960
   support grid    NGXF=   192 NGYF=  192 NGZF=  960
   ions per type =              31
   NGX,Y,Z   is equivalent  to a cutoff of  16.21, 16.20, 15.96 a.u.
   NGXF,Y,Z  is equivalent  to a cutoff of  32.42, 32.40, 31.92 a.u.

 SYSTEM =  unknown system                          
 POSCAR =  POSCAR file written by OVITO Basic 3.7.8

 Startparameter for this run:
   NWRITE =      2    write-flag & timer
   PREC   = accura    normal or accurate (medium, high low for compatibility)
   ISTART =      0    job   : 0-new  1-cont  2-samecut
   ICHARG =      2    charge: 1-file 2-atom 10-const
   ISPIN  =      1    spin polarized calculation?
   LNONCOLLINEAR =      F non collinear calculations
   LSORBIT =      F    spin-orbit coupling
   INIWAV =      1    electr: 0-lowe 1-rand  2-diag
   LASPH  =      F    aspherical Exc in radial PAW
   METAGGA=      F    non-selfconsistent MetaGGA calc.

 Electronic Relaxation 1
   ENCUT  =  850.0 eV  62.47 Ry    7.90 a.u.  23.41 23.42118.86*2*pi/ulx,y,z
   ENINI  =  850.0     initial cutoff
   ENAUG  =  644.9 eV  augmentation charge cutoff
   NELM   =    150;   NELMIN=  2; NELMDL= -5     # of ELM steps 
   EDIFF  = 0.1E-05   stopping-criterion for ELM
   LREAL  =      F    real-space projection
   NLSPLINE    = F    spline interpolate recip. space projectors
   LCOMPAT=      F    compatible to vasp.4.4
   GGA_COMPAT  = T    GGA compatible to vasp.4.4-vasp.4.6
   LMAXPAW     = -100 max onsite density
   LMAXMIX     =    2 max onsite mixed and CHGCAR
   VOSKOWN=      0    Vosko Wilk Nusair interpolation
   ROPT   =    0.00000
 Ionic relaxation
   EDIFFG = 0.1E-01   stopping-criterion for IOM
   NSW    =   1000    number of steps for IOM
   NBLOCK =      1;   KBLOCK =   1000    inner block; outer block 
   IBRION =      1    ionic relax: 0-MD 1-quasi-New 2-CG
   NFREE  =      0    steps in history (QN), initial steepest desc. (CG)
   ISIF   =      3    stress and relaxation
   IWAVPR =     11    prediction:  0-non 1-charg 2-wave 3-comb
   ISYM   =      0    0-nonsym 1-usesym 2-fastsym
   LCORR  =      T    Harris-Foulkes like correction to forces

   POTIM  = 0.5000    time-step for ionic-motion
   TEIN   =    0.0    initial temperature
   TEBEG  =    0.0;   TEEND  =   0.0 temperature during run
   SMASS  =  -3.00    Nose mass-parameter (am)
   estimated Nose-frequenzy (Omega)   =  0.10E-29 period in steps =****** mass=  -0.222E-26a.u.
   SCALEE = 1.0000    scale energy and forces
   NPACO  =    256;   APACO  = 16.0  distance and # of slots for P.C.
   PSTRESS=    0.0 pullay stress

  Mass of Ions in am
   POMASS =  12.01
  Ionic Valenz
   ZVAL   =   4.00
  Atomic Wigner-Seitz radii
   RWIGS  =  -1.00
  virtual crystal weights 
   VCA    =   1.00
   NELECT =     124.0000    total number of electrons
   NUPDOWN=      -1.0000    fix difference up-down

 DOS related values:
   EMIN   =  10.00;   EMAX   =-10.00  energy-range for DOS
   EFERMI =   0.00
   ISMEAR =    -5;   SIGMA  =   0.20  broadening in eV -4-tet -1-fermi 0-gaus

 Electronic relaxation 2 (details)
   IALGO  =     38    algorithm
   LDIAG  =      T    sub-space diagonalisation (order eigenvalues)
   LSUBROT=      F    optimize rotation matrix (better conditioning)
   TURBO    =      0    0=normal 1=particle mesh
   IRESTART =      0    0=no restart 2=restart with 2 vectors
   NREBOOT  =      0    no. of reboots
   NMIN     =      0    reboot dimension
   EREF     =   0.00    reference energy to select bands
   IMIX   =      4    mixing-type and parameters
     AMIX     =   0.40;   BMIX     =  1.00
     AMIX_MAG =   1.60;   BMIX_MAG =  1.00
     AMIN     =   0.10
     WC   =   100.;   INIMIX=   1;  MIXPRE=   1;  MAXMIX= -45

 Intra band minimization:
   WEIMIN = 0.0010     energy-eigenvalue tresh-hold
   EBREAK =  0.32E-08  absolut break condition
   DEPER  =   0.30     relativ break condition  

   TIME   =   0.40     timestep for ELM

  volume/ion in A,a.u.               =     135.45       914.05
  Fermi-wavevector in a.u.,A,eV,Ry     =   0.506024  0.956246  3.483910  0.256060
  Thomas-Fermi vector in A             =   1.516839
 
 Write flags
   LWAVE        =      F    write WAVECAR
   LDOWNSAMPLE  =      F    k-point downsampling of WAVECAR
   LCHARG       =      F    write CHGCAR
   LVTOT        =      F    write LOCPOT, total local potential
   LVHAR        =      F    write LOCPOT, Hartree potential only
   LELF         =      F    write electronic localiz. function (ELF)
   LORBIT       =      0    0 simple, 1 ext, 2 COOP (PROOUT), +10 PAW based schemes


 Dipole corrections
   LMONO  =      F    monopole corrections only (constant potential shift)
   LDIPOL =      F    correct potential (dipole corrections)
   IDIPOL =      0    1-x, 2-y, 3-z, 4-all directions 
   EPSILON=  1.0000000 bulk dielectric constant

 Exchange correlation treatment:
   GGA     =    --    GGA type
   LEXCH   =     8    internal setting for exchange type
   VOSKOWN=      0    Vosko Wilk Nusair interpolation
   LHFCALC =     F    Hartree Fock is set to
   LHFONE  =     F    Hartree Fock one center treatment
   AEXX    =    0.0000 exact exchange contribution

 Linear response parameters
   LEPSILON=     F    determine dielectric tensor
   LRPA    =     F    only Hartree local field effects (RPA)
   LNABLA  =     F    use nabla operator in PAW spheres
   LVEL    =     F    velocity operator in full k-point grid
   LINTERFAST=   F  fast interpolation
   KINTER  =     0    interpolate to denser k-point grid
   CSHIFT  =0.1000    complex shift for real part using Kramers Kronig
   OMEGAMAX=  -1.0    maximum frequency
   DEG_THRESHOLD= 0.2000000E-02 threshold for treating states as degnerate
   RTIME   =   -0.100 relaxation time in fs
  (WPLASMAI=    0.000 imaginary part of plasma frequency in eV, 0.658/RTIME)
   DFIELD  = 0.0000000 0.0000000 0.0000000 field for delta impulse in time
 
 Orbital magnetization related:
   ORBITALMAG=     F  switch on orbital magnetization
   LCHIMAG   =     F  perturbation theory with respect to B field
   DQ        =  0.001000  dq finite difference perturbation B field
   LLRAUG    =     F  two centre corrections for induced B field



--------------------------------------------------------------------------------------------------------


 quasi-Newton-method for relaxation of ions
 charge density and potential will be updated during run
 non-spin polarized calculation
 Variant of blocked Davidson
 Davidson routine will perform the subspace rotation
 perform sub-space diagonalisation
    after iterative eigenvector-optimisation
 modified Broyden-mixing scheme, WC =      100.0
 initial mixing is a Kerker type mixing with AMIX =  0.4000 and BMIX =      1.0000
 Hartree-type preconditioning will be used
 using additional bands           16
 reciprocal scheme for non local part
 use partial core corrections
 calculate Harris-corrections to forces 
   (improved forces if not selfconsistent)
 use gradient corrections 
 use of overlap-Matrix (Vanderbilt PP)
 Fermi weights with tetrahedron method with Bloechl corrections


--------------------------------------------------------------------------------------------------------


  energy-cutoff  :      850.00
  volume of cell :     4198.88
      direct lattice vectors                 reciprocal lattice vectors
     9.846720000  0.000000000  0.000000000     0.101556660 -0.058706163  0.000000000
     4.930000000  8.528480000  0.000000000     0.000000000  0.117254188  0.000000000
     0.000000000  0.000000000 50.000000000     0.000000000  0.000000000  0.020000000

  length of vectors
     9.846720000  9.850881743 50.000000000     0.117303746  0.117254188  0.020000000


 
 k-points in units of 2pi/SCALE and weight: read from INCAR                         
   0.00000000  0.00000000  0.00000000       0.040
   0.02031133 -0.01174123  0.00000000       0.080
   0.04062266 -0.02348247  0.00000000       0.080
   0.00000000  0.02345084  0.00000000       0.080
   0.02031133  0.01170961  0.00000000       0.080
   0.04062266 -0.00003163  0.00000000       0.080
  -0.04062266  0.04693330  0.00000000       0.080
  -0.02031133  0.03519207  0.00000000       0.080
   0.00000000  0.04690168  0.00000000       0.080
   0.02031133  0.03516044  0.00000000       0.080
   0.04062266  0.02341921  0.00000000       0.080
  -0.04062266  0.07038414  0.00000000       0.080
  -0.02031133  0.05864291  0.00000000       0.080
 
 k-points in reciprocal lattice and weights: read from INCAR                         
   0.00000000  0.00000000  0.00000000       0.040
   0.20000000  0.00000000  0.00000000       0.080
   0.40000000  0.00000000  0.00000000       0.080
   0.00000000  0.20000000  0.00000000       0.080
   0.20000000  0.20000000  0.00000000       0.080
   0.40000000  0.20000000  0.00000000       0.080
  -0.40000000  0.20000000  0.00000000       0.080
  -0.20000000  0.20000000  0.00000000       0.080
   0.00000000  0.40000000  0.00000000       0.080
   0.20000000  0.40000000  0.00000000       0.080
   0.40000000  0.40000000  0.00000000       0.080
  -0.40000000  0.40000000  0.00000000       0.080
  -0.20000000  0.40000000  0.00000000       0.080
 
 position of ions in fractional coordinates (direct lattice) 
   0.00051788  0.00044240  0.44000000
   0.08261287  0.08265508  0.44000000
   0.00123391  0.24951738  0.44000000
   0.08291691  0.33410075  0.44000000
   0.00029781  0.49914275  0.44000000
   0.08378260  0.58281626  0.44000000
   0.99987699  0.74976891  0.44000000
   0.08376431  0.83316279  0.44000000
   0.24945290  0.00126362  0.44000000
   0.33411657  0.08292950  0.44000000
   0.24894138  0.24904430  0.44000000
   0.33289354  0.33285143  0.44000000
   0.25353828  0.49777145  0.44000000
   0.33054941  0.58427699  0.44000000
   0.25393386  0.74830403  0.44000000
   0.33247181  0.83450735  0.44000000
   0.49917141  0.00024332  0.44000000
   0.58291526  0.08355137  0.44000000
   0.49767332  0.25325874  0.44000000
   0.58446034  0.32986108  0.44000000
   0.58473974  0.58506030  0.44000000
   0.49829708  0.74842358  0.44000000
   0.58264570  0.83332975  0.44000000
   0.74982116  0.99979671  0.44000000
   0.83326258  0.08361840  0.44000000
   0.74841264  0.25378043  0.44000000
   0.83437203  0.33252139  0.44000000
   0.74815356  0.49843493  0.44000000
   0.83329452  0.58259828  0.44000000
   0.74992765  0.74989841  0.44000000
   0.83342870  0.83326336  0.44000000
 
 position of ions in cartesian coordinates  (Angst):
   0.00728043  0.00377299 22.00000000
   1.22095537  0.70492216 22.00000000
   1.24227065  2.12800399 22.00000000
   2.46357624  2.84937153 22.00000000
   2.46370626  4.25692899 22.00000000
   3.69826801  4.97053684 22.00000000
  13.54186945  6.39438912 22.00000000
   4.93229627  7.10561222 22.00000000
   2.46252250  0.01077672 22.00000000
   3.69879473  0.70726260 22.00000000
   3.67904451  2.12396937 22.00000000
   4.91886706  2.83871679 22.00000000
   4.95053371  4.24523385 22.00000000
   6.13531306  4.98299461 22.00000000
   6.18955444  6.38189595 22.00000000
   7.38787812  7.11707928 22.00000000
   4.91640064  0.00207512 22.00000000
   6.15171157  0.71256619 22.00000000
   6.14901543  2.15991212 22.00000000
   7.38123243  2.81321359 22.00000000
   8.64211583  4.98967509 22.00000000
   8.59632011  6.38291556 22.00000000
   9.84546473  7.10703610 22.00000000
  12.31227678  8.52674621 22.00000000
   8.61714200  0.71313783 22.00000000
   8.62054722  2.16436128 22.00000000
   9.85515817  2.83590201 22.00000000
   9.82414280  4.25089234 22.00000000
  11.07742735  4.96867779 22.00000000
  11.08132674  6.39549360 22.00000000
  12.31452739  7.10646986 22.00000000
 


--------------------------------------------------------------------------------------------------------


 k-point  1 :   0.0000 0.0000 0.0000  plane waves:  236399
 k-point  2 :   0.2000 0.0000 0.0000  plane waves:  236384
 k-point  3 :   0.4000 0.0000 0.0000  plane waves:  236183
 k-point  4 :   0.0000 0.2000 0.0000  plane waves:  236383
 k-point  5 :   0.2000 0.2000 0.0000  plane waves:  236384
 k-point  6 :   0.4000 0.2000 0.0000  plane waves:  236217
 k-point  7 :  -0.4000 0.2000 0.0000  plane waves:  236260
 k-point  8 :  -0.2000 0.2000 0.0000  plane waves:  236225
 k-point  9 :   0.0000 0.4000 0.0000  plane waves:  236213
 k-point 10 :   0.2000 0.4000 0.0000  plane waves:  236205
 k-point 11 :   0.4000 0.4000 0.0000  plane waves:  236198
 k-point 12 :  -0.4000 0.4000 0.0000  plane waves:  236260
 k-point 13 :  -0.2000 0.4000 0.0000  plane waves:  236256

 maximum and minimum number of plane-waves per node :     29637    29480

 maximum number of plane-waves:    236399
 maximum index in each direction: 
   IXMAX=   23   IYMAX=   23   IZMAX=  118
   IXMIN=  -23   IYMIN=  -23   IZMIN= -118


 parallel 3D FFT for wavefunctions:
    minimum data exchange during FFTs selected (reduces bandwidth)
 parallel 3D FFT for charge:
    minimum data exchange during FFTs selected (reduces bandwidth)


 total amount of memory used by VASP MPI-rank0   248147. kBytes
=======================================================================

   base      :      30000. kBytes
   nonl-proj :      39314. kBytes
   fftplans  :      41100. kBytes
   grid      :      57575. kBytes
   one-center:         12. kBytes
   wavefun   :      80146. kBytes
 
     INWAV:  cpu time    0.0000: real time    0.0003
 Broyden mixing: mesh for mixing (old mesh)
   NGX = 47   NGY = 47   NGZ =237
  (NGX  =192   NGY  =192   NGZ  =960)
  gives a total of 523533 points

 initial charge density was supplied:
 charge density of overlapping atoms calculated
 number of electron     124.0000000 magnetization 
 keeping initial charge density in first step


--------------------------------------------------------------------------------------------------------


 Maximum index for augmentation-charges          573 (set IRDMAX)


--------------------------------------------------------------------------------------------------------


 First call to EWALD:  gamma=   0.110
 Maximum number of real-space cells 5x 5x 1
 Maximum number of reciprocal cells 2x 2x 7

    FEWALD:  cpu time    0.0019: real time    0.0019


--------------------------------------- Iteration      1(   1)  ---------------------------------------


    POTLOK:  cpu time    0.5127: real time    0.5213
    SETDIJ:  cpu time    0.0037: real time    0.0037
     EDDAV:  cpu time   43.1032: real time   43.2292
 BZINTS: Fermi energy:  5.592393;124.000000 electrons
         Band energy:-382.433760;  BLOECHL correction: -0.018103
       DOS:  cpu time    0.0067: real time    0.0067
    --------------------------------------------
      LOOP:  cpu time   43.6263: real time   43.7609

 eigenvalue-minimisations  :  2364
 total energy-change (2. order) : 0.1454419E+04  (-0.4282191E+04)
 number of electron     124.0000000 magnetization 
 augmentation part      124.0000000 magnetization 

 Free energy of the ion-electron system (eV)
  ---------------------------------------------------
  alpha Z        PSCENC =        18.80097473
  Ewald energy   TEWEN  =     60900.70978156
  -Hartree energ DENC   =    -64033.71904816
  -exchange      EXHF   =         0.00000000
  -V(xc)+E(xc)   XCENC  =       406.91407893
  PAW double counting   =      3364.18343778    -3381.83501785
  entropy T*S    EENTRO =         0.00000000
  eigenvalues    EBANDS =      -382.43376020
  atomic energy  EATOM  =      4561.79852166
  Solvation  Ediel_sol  =         0.00000000
  ---------------------------------------------------
  free energy    TOTEN  =      1454.41896845 eV

  energy without entropy =     1454.41896845  energy(sigma->0) =     1454.41896845


--------------------------------------------------------------------------------------------------------




--------------------------------------- Iteration      1(   2)  ---------------------------------------


     EDDAV:  cpu time   58.1391: real time   58.2874
 BZINTS: Fermi energy:  0.603227;124.000000 electrons
         Band energy:***********;  BLOECHL correction: -0.050042
       DOS:  cpu time    0.0066: real time    0.0067
    --------------------------------------------
      LOOP:  cpu time   58.1457: real time   58.2940

 eigenvalue-minimisations  :  3408
 total energy-change (2. order) :-0.1244166E+04  (-0.1161333E+04)
 number of electron     124.0000000 magnetization 
 augmentation part      124.0000000 magnetization 

 Free energy of the ion-electron system (eV)
  ---------------------------------------------------
  alpha Z        PSCENC =        18.80097473
  Ewald energy   TEWEN  =     60900.70978156
  -Hartree energ DENC   =    -64033.71904816
  -exchange      EXHF   =         0.00000000
  -V(xc)+E(xc)   XCENC  =       406.91407893
  PAW double counting   =      3364.18343778    -3381.83501785
  entropy T*S    EENTRO =         0.00000000
  eigenvalues    EBANDS =     -1626.60019901
  atomic energy  EATOM  =      4561.79852166
  Solvation  Ediel_sol  =         0.00000000
  ---------------------------------------------------
  free energy    TOTEN  =       210.25252963 eV

  energy without entropy =      210.25252963  energy(sigma->0) =      210.25252963


--------------------------------------------------------------------------------------------------------




--------------------------------------- Iteration      1(   3)  ---------------------------------------


     EDDAV:  cpu time   47.0108: real time   47.1293
 BZINTS: Fermi energy: -5.887647;124.000000 electrons
         Band energy:***********;  BLOECHL correction:  0.000000
       DOS:  cpu time    0.0014: real time    0.0014
    --------------------------------------------
      LOOP:  cpu time   47.0122: real time   47.1307

 eigenvalue-minimisations  :  2628
 total energy-change (2. order) :-0.4702999E+03  (-0.4632533E+03)
 number of electron     124.0000000 magnetization 
 augmentation part      124.0000000 magnetization 

 Free energy of the ion-electron system (eV)
  ---------------------------------------------------
  alpha Z        PSCENC =        18.80097473
  Ewald energy   TEWEN  =     60900.70978156
  -Hartree energ DENC   =    -64033.71904816
  -exchange      EXHF   =         0.00000000
  -V(xc)+E(xc)   XCENC  =       406.91407893
  PAW double counting   =      3364.18343778    -3381.83501785
  entropy T*S    EENTRO =         0.00000000
  eigenvalues    EBANDS =     -2096.90012622
  atomic energy  EATOM  =      4561.79852166
  Solvation  Ediel_sol  =         0.00000000
  ---------------------------------------------------
  free energy    TOTEN  =      -260.04739758 eV

  energy without entropy =     -260.04739758  energy(sigma->0) =     -260.04739758


--------------------------------------------------------------------------------------------------------




--------------------------------------- Iteration      1(   4)  ---------------------------------------


     EDDAV:  cpu time   47.9543: real time   48.1183
 BZINTS: Fermi energy: -7.361597;124.000000 electrons
         Band energy:***********;  BLOECHL correction:  0.000000
       DOS:  cpu time    0.0015: real time    0.0015
    --------------------------------------------
      LOOP:  cpu time   47.9558: real time   48.1198

 eigenvalue-minimisations  :  2688
 total energy-change (2. order) :-0.3665786E+02  (-0.3605791E+02)
 number of electron     124.0000000 magnetization 
 augmentation part      124.0000000 magnetization 

 Free energy of the ion-electron system (eV)
  ---------------------------------------------------
  alpha Z        PSCENC =        18.80097473
  Ewald energy   TEWEN  =     60900.70978156
  -Hartree energ DENC   =    -64033.71904816
  -exchange      EXHF   =         0.00000000
  -V(xc)+E(xc)   XCENC  =       406.91407893
  PAW double counting   =      3364.18343778    -3381.83501785
  entropy T*S    EENTRO =         0.00000000
  eigenvalues    EBANDS =     -2133.55798514
  atomic energy  EATOM  =      4561.79852166
  Solvation  Ediel_sol  =         0.00000000
  ---------------------------------------------------
  free energy    TOTEN  =      -296.70525650 eV

  energy without entropy =     -296.70525650  energy(sigma->0) =     -296.70525650


--------------------------------------------------------------------------------------------------------




--------------------------------------- Iteration      1(   5)  ---------------------------------------


     EDDAV:  cpu time   46.7517: real time   46.8707
 BZINTS: Fermi energy: -7.378662;124.000000 electrons
         Band energy:***********;  BLOECHL correction:  0.000000
       DOS:  cpu time    0.0015: real time    0.0015
    CHARGE:  cpu time    3.0582: real time    3.0679
    MIXING:  cpu time    0.0142: real time    0.0144
    --------------------------------------------
      LOOP:  cpu time   49.8256: real time   49.9546

 eigenvalue-minimisations  :  2616
 total energy-change (2. order) :-0.8472562E+00  (-0.8301401E+00)
 number of electron     123.9999996 magnetization 
 augmentation part        3.2435823 magnetization 

 Broyden mixing:
  rms(total) = 0.24759E+01    rms(broyden)= 0.24759E+01
  rms(prec ) = 0.25060E+01
  weight for this iteration     100.00

 Free energy of the ion-electron system (eV)
  ---------------------------------------------------
  alpha Z        PSCENC =        18.80097473
  Ewald energy   TEWEN  =     60900.70978156
  -Hartree energ DENC   =    -64033.71904816
  -exchange      EXHF   =         0.00000000
  -V(xc)+E(xc)   XCENC  =       406.91407893
  PAW double counting   =      3364.18343778    -3381.83501785
  entropy T*S    EENTRO =         0.00000000
  eigenvalues    EBANDS =     -2134.40524132
  atomic energy  EATOM  =      4561.79852166
  Solvation  Ediel_sol  =         0.00000000
  ---------------------------------------------------
  free energy    TOTEN  =      -297.55251267 eV

  energy without entropy =     -297.55251267  energy(sigma->0) =     -297.55251267


--------------------------------------------------------------------------------------------------------




--------------------------------------- Iteration      1(   6)  ---------------------------------------


    POTLOK:  cpu time    0.4564: real time    0.4656
    SETDIJ:  cpu time    0.0027: real time    0.0027
     EDDAV:  cpu time   44.5697: real time   44.6759
 BZINTS: Fermi energy: -6.786700;124.000000 electrons
         Band energy:***********;  BLOECHL correction:  0.000000
       DOS:  cpu time    0.0013: real time    0.0013
    CHARGE:  cpu time    4.4479: real time    5.5828
    MIXING:  cpu time    0.0118: real time    0.9875
    --------------------------------------------
      LOOP:  cpu time   49.4899: real time   51.7158

 eigenvalue-minimisations  :  2430
 total energy-change (2. order) : 0.1394435E+02  (-0.2212713E+01)
 number of electron     123.9999996 magnetization 
 augmentation part        3.0668860 magnetization 

 Broyden mixing:
  rms(total) = 0.14817E+01    rms(broyden)= 0.14817E+01
  rms(prec ) = 0.14986E+01
  weight for this iteration     100.00

 eigenvalues of (default mixing * dielectric matrix)
  average eigenvalue GAMMA=   1.6622
  1.6622

 Free energy of the ion-electron system (eV)
  ---------------------------------------------------
  alpha Z        PSCENC =        18.80097473
  Ewald energy   TEWEN  =     60900.70978156
  -Hartree energ DENC   =    -64208.65662355
  -exchange      EXHF   =         0.00000000
  -V(xc)+E(xc)   XCENC  =       414.16448893
  PAW double counting   =      6126.27186756    -6146.15080750
  entropy T*S    EENTRO =         0.00000000
  eigenvalues    EBANDS =     -1950.54636906
  atomic energy  EATOM  =      4561.79852166
  Solvation  Ediel_sol  =         0.00000000
  ---------------------------------------------------
  free energy    TOTEN  =      -283.60816569 eV

  energy without entropy =     -283.60816569  energy(sigma->0) =     -283.60816569


--------------------------------------------------------------------------------------------------------




--------------------------------------- Iteration      1(   7)  ---------------------------------------


    POTLOK:  cpu time    0.6357: real time    1.1479
    SETDIJ:  cpu time    0.0111: real time    0.0111
     EDDAV:  cpu time   45.0579: real time   45.2029
 BZINTS: Fermi energy: -5.195491;124.000000 electrons
         Band energy:***********;  BLOECHL correction:  0.000000
       DOS:  cpu time    0.0013: real time    0.0013
    CHARGE:  cpu time    3.1027: real time    3.1101
    MIXING:  cpu time    0.0148: real time    0.0149
    --------------------------------------------
      LOOP:  cpu time   48.8236: real time   49.4883

 eigenvalue-minimisations  :  2442
 total energy-change (2. order) : 0.3976302E+01  (-0.3006780E+01)
 number of electron     123.9999996 magnetization 
 augmentation part        2.9799727 magnetization 

 Broyden mixing:
  rms(total) = 0.70869E+00    rms(broyden)= 0.70869E+00
  rms(prec ) = 0.72383E+00
  weight for this iteration     100.00

 eigenvalues of (default mixing * dielectric matrix)
  average eigenvalue GAMMA=   1.4680
  0.6671  2.2689

 Free energy of the ion-electron system (eV)
  ---------------------------------------------------
  alpha Z        PSCENC =        18.80097473
  Ewald energy   TEWEN  =     60900.70978156
  -Hartree energ DENC   =    -64375.28557303
  -exchange      EXHF   =         0.00000000
  -V(xc)+E(xc)   XCENC  =       421.16478074
  PAW double counting   =      9855.61207878    -9876.94407759
  entropy T*S    EENTRO =         0.00000000
  eigenvalues    EBANDS =     -1785.48835085
  atomic energy  EATOM  =      4561.79852166
  Solvation  Ediel_sol  =         0.00000000
  ---------------------------------------------------
  free energy    TOTEN  =      -279.63186399 eV

  energy without entropy =     -279.63186399  energy(sigma->0) =     -279.63186399


--------------------------------------------------------------------------------------------------------




--------------------------------------- Iteration      1(   8)  ---------------------------------------


    POTLOK:  cpu time    0.4530: real time    0.4607
    SETDIJ:  cpu time    0.0022: real time    0.0022
     EDDAV:  cpu time   43.1968: real time   43.3056
 BZINTS: Fermi energy: -4.715515;124.000000 electrons
         Band energy:***********;  BLOECHL correction:  0.000000
       DOS:  cpu time    0.0013: real time    0.0013
    CHARGE:  cpu time    3.0894: real time    3.0968
    MIXING:  cpu time    0.0150: real time    0.0151
    --------------------------------------------
      LOOP:  cpu time   46.7577: real time   46.8818

 eigenvalue-minimisations  :  2352
 total energy-change (2. order) : 0.1220297E+01  (-0.4334545E+00)
 number of electron     123.9999996 magnetization 
 augmentation part        2.9196767 magnetization 

 Broyden mixing:
  rms(total) = 0.37168E+00    rms(broyden)= 0.37168E+00
  rms(prec ) = 0.37861E+00
  weight for this iteration     100.00

 eigenvalues of (default mixing * dielectric matrix)
  average eigenvalue GAMMA=   1.4209
  2.2424  1.1697  0.8507

 Free energy of the ion-electron system (eV)
  ---------------------------------------------------
  alpha Z        PSCENC =        18.80097473
  Ewald energy   TEWEN  =     60900.70978156
  -Hartree energ DENC   =    -64457.20337864
  -exchange      EXHF   =         0.00000000
  -V(xc)+E(xc)   XCENC  =       424.16689618
  PAW double counting   =     11949.46677214   -11971.14553174
  entropy T*S    EENTRO =         0.00000000
  eigenvalues    EBANDS =     -1705.00560318
  atomic energy  EATOM  =      4561.79852166
  Solvation  Ediel_sol  =         0.00000000
  ---------------------------------------------------
  free energy    TOTEN  =      -278.41156729 eV

  energy without entropy =     -278.41156729  energy(sigma->0) =     -278.41156729


--------------------------------------------------------------------------------------------------------




--------------------------------------- Iteration      1(   9)  ---------------------------------------


    POTLOK:  cpu time    0.4573: real time    0.4584
    SETDIJ:  cpu time    0.0028: real time    0.0028
     EDDAV:  cpu time   44.2678: real time   44.3823
 BZINTS: Fermi energy: -4.877022;124.000000 electrons
         Band energy:***********;  BLOECHL correction:  0.000000
       DOS:  cpu time    0.0019: real time    0.0019
    CHARGE:  cpu time    3.0595: real time    3.0668
    MIXING:  cpu time    0.0173: real time    0.0174
    --------------------------------------------
      LOOP:  cpu time   47.8065: real time   47.9295

 eigenvalue-minimisations  :  2424
 total energy-change (2. order) : 0.1508992E+00  (-0.2541207E+00)
 number of electron     123.9999996 magnetization 
 augmentation part        2.9005974 magnetization 

 Broyden mixing:
  rms(total) = 0.17655E+00    rms(broyden)= 0.17655E+00
  rms(prec ) = 0.18229E+00
  weight for this iteration     100.00

 eigenvalues of (default mixing * dielectric matrix)
  average eigenvalue GAMMA=   1.4872
  2.2329  2.2329  0.7414  0.7414

 Free energy of the ion-electron system (eV)
  ---------------------------------------------------
  alpha Z        PSCENC =        18.80097473
  Ewald energy   TEWEN  =     60900.70978156
  -Hartree energ DENC   =    -64470.33324113
  -exchange      EXHF   =         0.00000000
  -V(xc)+E(xc)   XCENC  =       423.98757364
  PAW double counting   =     12368.69970058   -12389.99442241
  entropy T*S    EENTRO =         0.00000000
  eigenvalues    EBANDS =     -1691.92955672
  atomic energy  EATOM  =      4561.79852166
  Solvation  Ediel_sol  =         0.00000000
  ---------------------------------------------------
  free energy    TOTEN  =      -278.26066808 eV

  energy without entropy =     -278.26066808  energy(sigma->0) =     -278.26066808


--------------------------------------------------------------------------------------------------------




--------------------------------------- Iteration      1(  10)  ---------------------------------------


    POTLOK:  cpu time    0.4619: real time    0.4727
    SETDIJ:  cpu time    0.0028: real time    0.0028
     EDDAV:  cpu time   40.7242: real time   40.8285
 BZINTS: Fermi energy: -4.610292;124.000000 electrons
         Band energy:***********;  BLOECHL correction: -0.006077
       DOS:  cpu time    0.0061: real time    0.0061
    CHARGE:  cpu time    3.0546: real time    3.0619
    MIXING:  cpu time    0.0174: real time    0.0175
    --------------------------------------------
      LOOP:  cpu time   44.2670: real time   44.3894

 eigenvalue-minimisations  :  2190
 total energy-change (2. order) : 0.6312914E-01  (-0.3770884E-01)
 number of electron     123.9999996 magnetization 
 augmentation part        2.9046625 magnetization 

 Broyden mixing:
  rms(total) = 0.11805E+00    rms(broyden)= 0.11805E+00
  rms(prec ) = 0.12236E+00
  weight for this iteration     100.00

 eigenvalues of (default mixing * dielectric matrix)
  average eigenvalue GAMMA=   1.3244
  2.2634  2.2634  0.7299  0.7299  0.6353

 Free energy of the ion-electron system (eV)
  ---------------------------------------------------
  alpha Z        PSCENC =        18.80097473
  Ewald energy   TEWEN  =     60900.70978156
  -Hartree energ DENC   =    -64486.03348448
  -exchange      EXHF   =         0.00000000
  -V(xc)+E(xc)   XCENC  =       423.96056520
  PAW double counting   =     12688.86879837   -12709.87207580
  entropy T*S    EENTRO =         0.00000000
  eigenvalues    EBANDS =     -1676.43062017
  atomic energy  EATOM  =      4561.79852166
  Solvation  Ediel_sol  =         0.00000000
  ---------------------------------------------------
  free energy    TOTEN  =      -278.19753894 eV

  energy without entropy =     -278.19753894  energy(sigma->0) =     -278.19753894


--------------------------------------------------------------------------------------------------------




--------------------------------------- Iteration      1(  11)  ---------------------------------------


    POTLOK:  cpu time    0.4529: real time    0.4551
    SETDIJ:  cpu time    0.0026: real time    0.0026
     EDDAV:  cpu time   47.2030: real time   47.3151
 BZINTS: Fermi energy: -4.480206;124.000000 electrons
         Band energy:***********;  BLOECHL correction:  0.000000
       DOS:  cpu time    0.0018: real time    0.0018
    CHARGE:  cpu time    3.0990: real time    3.1064
    MIXING:  cpu time    0.0158: real time    0.0158
    --------------------------------------------
      LOOP:  cpu time   50.7750: real time   50.8968

 eigenvalue-minimisations  :  2634
 total energy-change (2. order) : 0.3136745E-01  (-0.1016457E-01)
 number of electron     123.9999996 magnetization 
 augmentation part        2.9042748 magnetization 

 Broyden mixing:
  rms(total) = 0.73445E-01    rms(broyden)= 0.73445E-01
  rms(prec ) = 0.76836E-01
  weight for this iteration     100.00

 eigenvalues of (default mixing * dielectric matrix)
  average eigenvalue GAMMA=   1.3014
  2.3165  2.3165  0.9395  0.9395  0.8248  0.4717

 Free energy of the ion-electron system (eV)
  ---------------------------------------------------
  alpha Z        PSCENC =        18.80097473
  Ewald energy   TEWEN  =     60900.70978156
  -Hartree energ DENC   =    -64493.24059069
  -exchange      EXHF   =         0.00000000
  -V(xc)+E(xc)   XCENC  =       424.05513618
  PAW double counting   =     12732.32361455   -12753.31669910
  entropy T*S    EENTRO =         0.00000000
  eigenvalues    EBANDS =     -1669.29691039
  atomic energy  EATOM  =      4561.79852166
  Solvation  Ediel_sol  =         0.00000000
  ---------------------------------------------------
  free energy    TOTEN  =      -278.16617149 eV

  energy without entropy =     -278.16617149  energy(sigma->0) =     -278.16617149


--------------------------------------------------------------------------------------------------------




--------------------------------------- Iteration      1(  12)  ---------------------------------------


    POTLOK:  cpu time    0.4512: real time    0.4567
    SETDIJ:  cpu time    0.0025: real time    0.0025
     EDDAV:  cpu time   40.6738: real time   40.7726
 BZINTS: Fermi energy: -4.393968;124.000000 electrons
         Band energy:***********;  BLOECHL correction: -0.001519
       DOS:  cpu time    0.0060: real time    0.0060
    CHARGE:  cpu time    3.0813: real time    3.0886
    MIXING:  cpu time    0.0142: real time    0.0143
    --------------------------------------------
      LOOP:  cpu time   44.2289: real time   44.3407

 eigenvalue-minimisations  :  2172
 total energy-change (2. order) : 0.8203262E-02  (-0.3169285E-02)
 number of electron     123.9999996 magnetization 
 augmentation part        2.9030744 magnetization 

 Broyden mixing:
  rms(total) = 0.56286E-01    rms(broyden)= 0.56285E-01
  rms(prec ) = 0.59597E-01
  weight for this iteration     100.00

 eigenvalues of (default mixing * dielectric matrix)
  average eigenvalue GAMMA=   1.2785
  2.2959  2.2959  1.1954  1.1954  0.7665  0.7665  0.4335

 Free energy of the ion-electron system (eV)
  ---------------------------------------------------
  alpha Z        PSCENC =        18.80097473
  Ewald energy   TEWEN  =     60900.70978156
  -Hartree energ DENC   =    -64503.73158843
  -exchange      EXHF   =         0.00000000
  -V(xc)+E(xc)   XCENC  =       424.16125728
  PAW double counting   =     12750.17463066   -12771.15723890
  entropy T*S    EENTRO =         0.00000000
  eigenvalues    EBANDS =     -1658.91430679
  atomic energy  EATOM  =      4561.79852166
  Solvation  Ediel_sol  =         0.00000000
  ---------------------------------------------------
  free energy    TOTEN  =      -278.15796823 eV

  energy without entropy =     -278.15796823  energy(sigma->0) =     -278.15796823


--------------------------------------------------------------------------------------------------------




--------------------------------------- Iteration      1(  13)  ---------------------------------------


    POTLOK:  cpu time    0.4693: real time    0.4704
    SETDIJ:  cpu time    0.0024: real time    0.0024
     EDDAV:  cpu time   43.0328: real time   43.5341
 BZINTS: Fermi energy: -4.270292;124.000000 electrons
         Band energy:***********;  BLOECHL correction:  0.000000
       DOS:  cpu time    0.0017: real time    0.0017
    CHARGE:  cpu time    3.1030: real time    3.1105
    MIXING:  cpu time    0.0163: real time    0.0163
    --------------------------------------------
      LOOP:  cpu time   46.6255: real time   47.1354

 eigenvalue-minimisations  :  2154
 total energy-change (2. order) :-0.4023887E-02  (-0.1792285E-01)
 number of electron     123.9999996 magnetization 
 augmentation part        2.9109238 magnetization 

 Broyden mixing:
  rms(total) = 0.12286E+00    rms(broyden)= 0.12286E+00
  rms(prec ) = 0.12711E+00
  weight for this iteration     100.00

 eigenvalues of (default mixing * dielectric matrix)
  average eigenvalue GAMMA=   1.1499
  2.3465  2.3465  1.1115  0.9713  0.9713  0.7860  0.4305  0.2352

 Free energy of the ion-electron system (eV)
  ---------------------------------------------------
  alpha Z        PSCENC =        18.80097473
  Ewald energy   TEWEN  =     60900.70978156
  -Hartree energ DENC   =    -64513.54649138
  -exchange      EXHF   =         0.00000000
  -V(xc)+E(xc)   XCENC  =       424.25880392
  PAW double counting   =     12732.25310330   -12753.24371660
  entropy T*S    EENTRO =         0.00000000
  eigenvalues    EBANDS =     -1649.19296930
  atomic energy  EATOM  =      4561.79852166
  Solvation  Ediel_sol  =         0.00000000
  ---------------------------------------------------
  free energy    TOTEN  =      -278.16199212 eV

  energy without entropy =     -278.16199212  energy(sigma->0) =     -278.16199212


--------------------------------------------------------------------------------------------------------




--------------------------------------- Iteration      1(  14)  ---------------------------------------


    POTLOK:  cpu time    0.4741: real time    0.4828
    SETDIJ:  cpu time    0.0023: real time    0.0023
     EDDAV:  cpu time   40.3152: real time   40.4133
 BZINTS: Fermi energy: -4.260878;124.000000 electrons
         Band energy:***********;  BLOECHL correction: -0.001203
       DOS:  cpu time    0.0061: real time    0.0061
    CHARGE:  cpu time    3.0786: real time    3.0860
    MIXING:  cpu time    0.0158: real time    0.0159
    --------------------------------------------
      LOOP:  cpu time   43.8921: real time   44.0065

 eigenvalue-minimisations  :  2148
 total energy-change (2. order) : 0.9995272E-02  (-0.2375968E-02)
 number of electron     123.9999996 magnetization 
 augmentation part        2.9075462 magnetization 

 Broyden mixing:
  rms(total) = 0.67626E-01    rms(broyden)= 0.67626E-01
  rms(prec ) = 0.70306E-01
  weight for this iteration     100.00

 eigenvalues of (default mixing * dielectric matrix)
  average eigenvalue GAMMA=   1.0354
  2.3497  2.3497  1.1631  0.9514  0.9514  0.7534  0.4125  0.1936  0.1936

 Free energy of the ion-electron system (eV)
  ---------------------------------------------------
  alpha Z        PSCENC =        18.80097473
  Ewald energy   TEWEN  =     60900.70978156
  -Hartree energ DENC   =    -64517.59163510
  -exchange      EXHF   =         0.00000000
  -V(xc)+E(xc)   XCENC  =       424.28347610
  PAW double counting   =     12730.57470367   -12751.55878617
  entropy T*S    EENTRO =         0.00000000
  eigenvalues    EBANDS =     -1645.16903329
  atomic energy  EATOM  =      4561.79852166
  Solvation  Ediel_sol  =         0.00000000
  ---------------------------------------------------
  free energy    TOTEN  =      -278.15199684 eV

  energy without entropy =     -278.15199684  energy(sigma->0) =     -278.15199684


--------------------------------------------------------------------------------------------------------




--------------------------------------- Iteration      1(  15)  ---------------------------------------


    POTLOK:  cpu time    0.4585: real time    0.4596
    SETDIJ:  cpu time    0.0024: real time    0.0024
     EDDAV:  cpu time   43.8861: real time   43.9925
 BZINTS: Fermi energy: -4.254796;124.000000 electrons
         Band energy:***********;  BLOECHL correction: -0.001020
       DOS:  cpu time    0.0058: real time    0.0058
    CHARGE:  cpu time    3.0678: real time    3.0751
    MIXING:  cpu time    0.0165: real time    0.0165
    --------------------------------------------
      LOOP:  cpu time   47.4371: real time   47.5520

 eigenvalue-minimisations  :  2424
 total energy-change (2. order) : 0.5971944E-03  (-0.2059229E-02)
 number of electron     123.9999996 magnetization 
 augmentation part        2.9017208 magnetization 

 Broyden mixing:
  rms(total) = 0.38458E-01    rms(broyden)= 0.38455E-01
  rms(prec ) = 0.41063E-01
  weight for this iteration     100.00

 eigenvalues of (default mixing * dielectric matrix)
  average eigenvalue GAMMA=   1.0538
  2.3970  2.3970  1.3774  1.0338  0.8619  0.8619  0.6984  0.4533  0.2806  0.1767

 Free energy of the ion-electron system (eV)
  ---------------------------------------------------
  alpha Z        PSCENC =        18.80097473
  Ewald energy   TEWEN  =     60900.70978156
  -Hartree energ DENC   =    -64518.54343642
  -exchange      EXHF   =         0.00000000
  -V(xc)+E(xc)   XCENC  =       424.28756016
  PAW double counting   =     12730.27476876   -12751.25730775
  entropy T*S    EENTRO =         0.00000000
  eigenvalues    EBANDS =     -1644.22226235
  atomic energy  EATOM  =      4561.79852166
  Solvation  Ediel_sol  =         0.00000000
  ---------------------------------------------------
  free energy    TOTEN  =      -278.15139965 eV

  energy without entropy =     -278.15139965  energy(sigma->0) =     -278.15139965


--------------------------------------------------------------------------------------------------------




--------------------------------------- Iteration      1(  16)  ---------------------------------------


    POTLOK:  cpu time    0.4521: real time    0.4623
    SETDIJ:  cpu time    0.0030: real time    0.0030
     EDDAV:  cpu time   39.8894: real time   40.0113
 BZINTS: Fermi energy: -4.175581;124.000000 electrons
         Band energy:***********;  BLOECHL correction: -0.002815
       DOS:  cpu time    0.0065: real time    0.0064
    CHARGE:  cpu time    3.0633: real time    3.0707
    MIXING:  cpu time    0.0162: real time    0.0163
    --------------------------------------------
      LOOP:  cpu time   43.4305: real time   43.5700

 eigenvalue-minimisations  :  2124
 total energy-change (2. order) :-0.3431405E-02  (-0.2460087E-02)
 number of electron     123.9999996 magnetization 
 augmentation part        2.9097362 magnetization 

 Broyden mixing:
  rms(total) = 0.10877E+00    rms(broyden)= 0.10877E+00
  rms(prec ) = 0.11244E+00
  weight for this iteration     100.00

 eigenvalues of (default mixing * dielectric matrix)
  average eigenvalue GAMMA=   1.1219
  2.5293  2.5293  1.7509  1.2086  1.2086  0.8317  0.8317  0.6436  0.4459  0.1804
  0.1804

 Free energy of the ion-electron system (eV)
  ---------------------------------------------------
  alpha Z        PSCENC =        18.80097473
  Ewald energy   TEWEN  =     60900.70978156
  -Hartree energ DENC   =    -64527.96424988
  -exchange      EXHF   =         0.00000000
  -V(xc)+E(xc)   XCENC  =       424.35737811
  PAW double counting   =     12722.41920126   -12743.39845813
  entropy T*S    EENTRO =         0.00000000
  eigenvalues    EBANDS =     -1634.87798036
  atomic energy  EATOM  =      4561.79852166
  Solvation  Ediel_sol  =         0.00000000
  ---------------------------------------------------
  free energy    TOTEN  =      -278.15483105 eV

  energy without entropy =     -278.15483105  energy(sigma->0) =     -278.15483105


--------------------------------------------------------------------------------------------------------




--------------------------------------- Iteration      1(  17)  ---------------------------------------


    POTLOK:  cpu time    0.4603: real time    0.4614
    SETDIJ:  cpu time    0.0027: real time    0.0027
     EDDAV:  cpu time   39.8563: real time   39.9582
 BZINTS: Fermi energy: -4.132900;124.000000 electrons
         Band energy:***********;  BLOECHL correction:  0.000000
       DOS:  cpu time    0.0018: real time    0.0018
    CHARGE:  cpu time    3.0591: real time    3.0665
    MIXING:  cpu time    0.0200: real time    0.0200
    --------------------------------------------
      LOOP:  cpu time   43.4002: real time   43.5107

 eigenvalue-minimisations  :  2118
 total energy-change (2. order) :-0.6969917E-02  (-0.2514034E-01)
 number of electron     123.9999996 magnetization 
 augmentation part        2.9001695 magnetization 

 Broyden mixing:
  rms(total) = 0.61591E-01    rms(broyden)= 0.61588E-01
  rms(prec ) = 0.63791E-01
  weight for this iteration     100.00

 eigenvalues of (default mixing * dielectric matrix)
  average eigenvalue GAMMA=   1.2307
  3.9231  2.3966  2.1796  1.1312  1.1312  0.8255  0.8255  0.7765  0.7765  0.4394
  0.1820  0.1820

 Free energy of the ion-electron system (eV)
  ---------------------------------------------------
  alpha Z        PSCENC =        18.80097473
  Ewald energy   TEWEN  =     60900.70978156
  -Hartree energ DENC   =    -64538.36801272
  -exchange      EXHF   =         0.00000000
  -V(xc)+E(xc)   XCENC  =       424.41642953
  PAW double counting   =     12717.41827160   -12738.38997974
  entropy T*S    EENTRO =         0.00000000
  eigenvalues    EBANDS =     -1624.54778758
  atomic energy  EATOM  =      4561.79852166
  Solvation  Ediel_sol  =         0.00000000
  ---------------------------------------------------
  free energy    TOTEN  =      -278.16180097 eV

  energy without entropy =     -278.16180097  energy(sigma->0) =     -278.16180097


--------------------------------------------------------------------------------------------------------




--------------------------------------- Iteration      1(  18)  ---------------------------------------


    POTLOK:  cpu time    0.4725: real time    0.4823
    SETDIJ:  cpu time    0.0027: real time    0.0027
     EDDAV:  cpu time   39.0214: real time   39.1229
 BZINTS: Fermi energy: -4.053736;124.000000 electrons
         Band energy:***********;  BLOECHL correction:  0.000000
       DOS:  cpu time    0.0017: real time    0.0017
    CHARGE:  cpu time    3.0908: real time    3.0982
    MIXING:  cpu time    0.0197: real time    0.0197
    --------------------------------------------
      LOOP:  cpu time   42.6087: real time   42.7275

 eigenvalue-minimisations  :  2076
 total energy-change (2. order) :-0.4223177E-02  (-0.4367299E-03)
 number of electron     123.9999996 magnetization 
 augmentation part        2.8991639 magnetization 

 Broyden mixing:
  rms(total) = 0.65699E-01    rms(broyden)= 0.65699E-01
  rms(prec ) = 0.67810E-01
  weight for this iteration     100.00

 eigenvalues of (default mixing * dielectric matrix)
  average eigenvalue GAMMA=   1.2886
  4.6243  2.4693  2.1346  1.2241  1.2241  0.9836  0.9836  0.8125  0.8125  0.6819
  0.4387  0.1817  0.1817

 Free energy of the ion-electron system (eV)
  ---------------------------------------------------
  alpha Z        PSCENC =        18.80097473
  Ewald energy   TEWEN  =     60900.70978156
  -Hartree energ DENC   =    -64550.13610303
  -exchange      EXHF   =         0.00000000
  -V(xc)+E(xc)   XCENC  =       424.49488304
  PAW double counting   =     12712.43297513   -12733.40157000
  entropy T*S    EENTRO =         0.00000000
  eigenvalues    EBANDS =     -1612.86548723
  atomic energy  EATOM  =      4561.79852166
  Solvation  Ediel_sol  =         0.00000000
  ---------------------------------------------------
  free energy    TOTEN  =      -278.16602415 eV

  energy without entropy =     -278.16602415  energy(sigma->0) =     -278.16602415


--------------------------------------------------------------------------------------------------------




--------------------------------------- Iteration      1(  19)  ---------------------------------------


    POTLOK:  cpu time    0.4711: real time    0.4723
    SETDIJ:  cpu time    0.0026: real time    0.0026
     EDDAV:  cpu time   39.3593: real time   39.4562
 BZINTS: Fermi energy: -3.999364;124.000000 electrons
         Band energy:***********;  BLOECHL correction:  0.000000
       DOS:  cpu time    0.0020: real time    0.0020
    CHARGE:  cpu time    3.2617: real time    3.2695
    MIXING:  cpu time    0.0214: real time    0.0214
    --------------------------------------------
      LOOP:  cpu time   43.1182: real time   43.2240

 eigenvalue-minimisations  :  2076
 total energy-change (2. order) :-0.1282502E-03  (-0.9283546E-04)
 number of electron     123.9999996 magnetization 
 augmentation part        2.8988771 magnetization 

 Broyden mixing:
  rms(total) = 0.61273E-01    rms(broyden)= 0.61273E-01
  rms(prec ) = 0.63246E-01
  weight for this iteration     100.00

 eigenvalues of (default mixing * dielectric matrix)
  average eigenvalue GAMMA=   1.3386
  5.2441  2.2587  2.2587  1.5117  1.2698  1.2698  0.8853  0.8853  0.8963  0.7289
  0.7289  0.4394  0.1817  0.1817

 Free energy of the ion-electron system (eV)
  ---------------------------------------------------
  alpha Z        PSCENC =        18.80097473
  Ewald energy   TEWEN  =     60900.70978156
  -Hartree energ DENC   =    -64555.46424663
  -exchange      EXHF   =         0.00000000
  -V(xc)+E(xc)   XCENC  =       424.51783020
  PAW double counting   =     12705.97228717   -12726.94129468
  entropy T*S    EENTRO =         0.00000000
  eigenvalues    EBANDS =     -1607.56000639
  atomic energy  EATOM  =      4561.79852166
  Solvation  Ediel_sol  =         0.00000000
  ---------------------------------------------------
  free energy    TOTEN  =      -278.16615240 eV

  energy without entropy =     -278.16615240  energy(sigma->0) =     -278.16615240


--------------------------------------------------------------------------------------------------------




--------------------------------------- Iteration      1(  20)  ---------------------------------------


    POTLOK:  cpu time    0.5048: real time    0.5130
    SETDIJ:  cpu time    0.0028: real time    0.0028
     EDDAV:  cpu time   39.6525: real time   39.7504
 BZINTS: Fermi energy: -3.962503;124.000000 electrons
         Band energy:***********;  BLOECHL correction:  0.000000
       DOS:  cpu time    0.0013: real time    0.0014
    CHARGE:  cpu time    3.1060: real time    3.1134
    MIXING:  cpu time    0.0205: real time    0.0206
    --------------------------------------------
      LOOP:  cpu time   43.2879: real time   43.4015

 eigenvalue-minimisations  :  2100
 total energy-change (2. order) :-0.3296333E-03  (-0.8417305E-04)
 number of electron     123.9999996 magnetization 
 augmentation part        2.8987091 magnetization 

 Broyden mixing:
  rms(total) = 0.56982E-01    rms(broyden)= 0.56982E-01
  rms(prec ) = 0.58801E-01
  weight for this iteration     100.00

 eigenvalues of (default mixing * dielectric matrix)
  average eigenvalue GAMMA=   1.3715
  5.5514  2.3848  2.0438  2.0438  1.3041  1.3041  0.9339  0.9339  1.0111  0.7795
  0.7795  0.6999  0.4391  0.1817  0.1817

 Free energy of the ion-electron system (eV)
  ---------------------------------------------------
  alpha Z        PSCENC =        18.80097473
  Ewald energy   TEWEN  =     60900.70978156
  -Hartree energ DENC   =    -64558.92731907
  -exchange      EXHF   =         0.00000000
  -V(xc)+E(xc)   XCENC  =       424.52866012
  PAW double counting   =     12708.91022903   -12729.87817259
  entropy T*S    EENTRO =         0.00000000
  eigenvalues    EBANDS =     -1604.10915747
  atomic energy  EATOM  =      4561.79852166
  Solvation  Ediel_sol  =         0.00000000
  ---------------------------------------------------
  free energy    TOTEN  =      -278.16648203 eV

  energy without entropy =     -278.16648203  energy(sigma->0) =     -278.16648203


--------------------------------------------------------------------------------------------------------




--------------------------------------- Iteration      1(  21)  ---------------------------------------


    POTLOK:  cpu time    0.4600: real time    0.4611
    SETDIJ:  cpu time    0.0023: real time    0.0023
     EDDAV:  cpu time   41.9815: real time   42.0846
 BZINTS: Fermi energy: -3.935305;124.000000 electrons
         Band energy:***********;  BLOECHL correction:  0.000000
       DOS:  cpu time    0.0020: real time    0.0020
    CHARGE:  cpu time    3.0876: real time    3.0951
    MIXING:  cpu time    0.0193: real time    0.0193
    --------------------------------------------
      LOOP:  cpu time   45.5528: real time   45.6645

 eigenvalue-minimisations  :  2274
 total energy-change (2. order) :-0.9267874E-03  (-0.5186213E-04)
 number of electron     123.9999996 magnetization 
 augmentation part        2.8987150 magnetization 

 Broyden mixing:
  rms(total) = 0.53261E-01    rms(broyden)= 0.53261E-01
  rms(prec ) = 0.54961E-01
  weight for this iteration     100.00

 eigenvalues of (default mixing * dielectric matrix)
  average eigenvalue GAMMA=   1.5179
  6.0384  2.5756  2.5756  2.4926  2.1808  1.2383  1.2383  0.9734  0.9734  0.8223
  0.8223  0.7766  0.7766  0.4392  0.1817  0.1817

 Free energy of the ion-electron system (eV)
  ---------------------------------------------------
  alpha Z        PSCENC =        18.80097473
  Ewald energy   TEWEN  =     60900.70978156
  -Hartree energ DENC   =    -64561.18627819
  -exchange      EXHF   =         0.00000000
  -V(xc)+E(xc)   XCENC  =       424.52884147
  PAW double counting   =     12707.81484196   -12728.78222438
  entropy T*S    EENTRO =         0.00000000
  eigenvalues    EBANDS =     -1601.85186763
  atomic energy  EATOM  =      4561.79852166
  Solvation  Ediel_sol  =         0.00000000
  ---------------------------------------------------
  free energy    TOTEN  =      -278.16740882 eV

  energy without entropy =     -278.16740882  energy(sigma->0) =     -278.16740882


--------------------------------------------------------------------------------------------------------




--------------------------------------- Iteration      1(  22)  ---------------------------------------


    POTLOK:  cpu time    0.4547: real time    0.4634
    SETDIJ:  cpu time    0.0031: real time    0.0031
     EDDAV:  cpu time   39.5776: real time   39.6999
 BZINTS: Fermi energy: -3.896537;124.000000 electrons
         Band energy:***********;  BLOECHL correction: -0.002240
       DOS:  cpu time    0.0064: real time    0.0064
    CHARGE:  cpu time    3.1147: real time    3.1222
    MIXING:  cpu time    0.0199: real time    0.0199
    --------------------------------------------
      LOOP:  cpu time   43.1764: real time   43.3148

 eigenvalue-minimisations  :  2088
 total energy-change (2. order) :-0.7173881E-03  (-0.1722668E-03)
 number of electron     123.9999996 magnetization 
 augmentation part        2.8990560 magnetization 

 Broyden mixing:
  rms(total) = 0.38225E-01    rms(broyden)= 0.38225E-01
  rms(prec ) = 0.39441E-01
  weight for this iteration     100.00

 eigenvalues of (default mixing * dielectric matrix)
  average eigenvalue GAMMA=   1.5681
  6.6576  3.2547  3.2547  2.1666  1.9413  1.2030  1.2030  1.0959  1.0959  0.9054
  0.9054  0.7428  0.7428  0.6853  0.4392  0.1817  0.1817

 Free energy of the ion-electron system (eV)
  ---------------------------------------------------
  alpha Z        PSCENC =        18.80097473
  Ewald energy   TEWEN  =     60900.70978156
  -Hartree energ DENC   =    -64564.01179260
  -exchange      EXHF   =         0.00000000
  -V(xc)+E(xc)   XCENC  =       424.53775310
  PAW double counting   =     12707.96125304   -12728.92970201
  entropy T*S    EENTRO =         0.00000000
  eigenvalues    EBANDS =     -1599.03491569
  atomic energy  EATOM  =      4561.79852166
  Solvation  Ediel_sol  =         0.00000000
  ---------------------------------------------------
  free energy    TOTEN  =      -278.16812621 eV

  energy without entropy =     -278.16812621  energy(sigma->0) =     -278.16812621


--------------------------------------------------------------------------------------------------------




--------------------------------------- Iteration      1(  23)  ---------------------------------------


    POTLOK:  cpu time    0.4486: real time    0.4496
    SETDIJ:  cpu time    0.0026: real time    0.0026
     EDDAV:  cpu time   41.0003: real time   41.0978
 BZINTS: Fermi energy: -3.884908;124.000000 electrons
         Band energy:***********;  BLOECHL correction:  0.000000
       DOS:  cpu time    0.0018: real time    0.0018
    CHARGE:  cpu time    3.1132: real time    3.1206
    MIXING:  cpu time    0.0243: real time    0.0244
    --------------------------------------------
      LOOP:  cpu time   44.5908: real time   44.6968

 eigenvalue-minimisations  :  2208
 total energy-change (2. order) :-0.7303343E-03  (-0.3640282E-02)
 number of electron     123.9999996 magnetization 
 augmentation part        2.9046434 magnetization 

 Broyden mixing:
  rms(total) = 0.63205E-01    rms(broyden)= 0.63204E-01
  rms(prec ) = 0.65222E-01
  weight for this iteration     100.00

 eigenvalues of (default mixing * dielectric matrix)
  average eigenvalue GAMMA=   1.5111
  7.0968  3.4139  2.6252  2.2223  1.6568  1.6568  1.1665  1.1665  0.9140  0.9140
  0.9869  0.7457  0.7211  0.7211  0.4393  0.1817  0.1817  0.3900

 Free energy of the ion-electron system (eV)
  ---------------------------------------------------
  alpha Z        PSCENC =        18.80097473
  Ewald energy   TEWEN  =     60900.70978156
  -Hartree energ DENC   =    -64565.03946537
  -exchange      EXHF   =         0.00000000
  -V(xc)+E(xc)   XCENC  =       424.54119081
  PAW double counting   =     12710.17970691   -12731.14734577
  entropy T*S    EENTRO =         0.00000000
  eigenvalues    EBANDS =     -1598.01222107
  atomic energy  EATOM  =      4561.79852166
  Solvation  Ediel_sol  =         0.00000000
  ---------------------------------------------------
  free energy    TOTEN  =      -278.16885654 eV

  energy without entropy =     -278.16885654  energy(sigma->0) =     -278.16885654


--------------------------------------------------------------------------------------------------------




--------------------------------------- Iteration      1(  24)  ---------------------------------------


    POTLOK:  cpu time    0.4513: real time    0.4616
    SETDIJ:  cpu time    0.0022: real time    0.0022
     EDDAV:  cpu time   40.0882: real time   40.1837
 BZINTS: Fermi energy: -3.885806;124.000000 electrons
         Band energy:***********;  BLOECHL correction: -0.001402
       DOS:  cpu time    0.0063: real time    0.0063
    CHARGE:  cpu time    3.0992: real time    3.1066
    MIXING:  cpu time    0.0244: real time    0.0245
    --------------------------------------------
      LOOP:  cpu time   43.6716: real time   43.7849

 eigenvalue-minimisations  :  2130
 total energy-change (2. order) : 0.2170493E-03  (-0.2400869E-04)
 number of electron     123.9999996 magnetization 
 augmentation part        2.9045896 magnetization 

 Broyden mixing:
  rms(total) = 0.59814E-01    rms(broyden)= 0.59814E-01
  rms(prec ) = 0.61707E-01
  weight for this iteration     100.00

 eigenvalues of (default mixing * dielectric matrix)
  average eigenvalue GAMMA=   1.4322
  7.0872  3.4053  2.6296  2.2173  1.6607  1.6607  1.1651  1.1651  0.9142  0.9142
  0.9876  0.7452  0.7215  0.7215  0.4393  0.1817  0.1817  0.3665  0.0477

 Free energy of the ion-electron system (eV)
  ---------------------------------------------------
  alpha Z        PSCENC =        18.80097473
  Ewald energy   TEWEN  =     60900.70978156
  -Hartree energ DENC   =    -64565.04193678
  -exchange      EXHF   =         0.00000000
  -V(xc)+E(xc)   XCENC  =       424.53964982
  PAW double counting   =     12709.07954670   -12730.04711712
  entropy T*S    EENTRO =         0.00000000
  eigenvalues    EBANDS =     -1598.00806006
  atomic energy  EATOM  =      4561.79852166
  Solvation  Ediel_sol  =         0.00000000
  ---------------------------------------------------
  free energy    TOTEN  =      -278.16863949 eV

  energy without entropy =     -278.16863949  energy(sigma->0) =     -278.16863949


--------------------------------------------------------------------------------------------------------




--------------------------------------- Iteration      1(  25)  ---------------------------------------


    POTLOK:  cpu time    0.4555: real time    0.4611
    SETDIJ:  cpu time    0.0023: real time    0.0023
     EDDAV:  cpu time   43.5902: real time   43.6997
 BZINTS: Fermi energy: -3.886876;124.000000 electrons
         Band energy:***********;  BLOECHL correction: -0.002483
       DOS:  cpu time    0.0064: real time    0.0064
    CHARGE:  cpu time    3.1124: real time    3.1198
    MIXING:  cpu time    0.0230: real time    0.0231
    --------------------------------------------
      LOOP:  cpu time   47.1898: real time   47.3123

 eigenvalue-minimisations  :  2358
 total energy-change (2. order) :-0.7236793E-03  (-0.5174619E-05)
 number of electron     123.9999996 magnetization 
 augmentation part        2.9044936 magnetization 

 Broyden mixing:
  rms(total) = 0.57389E-01    rms(broyden)= 0.57389E-01
  rms(prec ) = 0.59202E-01
  weight for this iteration     100.00

 eigenvalues of (default mixing * dielectric matrix)
  average eigenvalue GAMMA=   1.4035
  7.0937  3.2528  2.5803  2.1995  1.6317  1.6317  1.1456  1.1456  0.9148  0.9148
  0.9692  0.7691  0.7054  0.7054  0.4391  0.5578  0.5252  0.5252  0.1817  0.1817

 Free energy of the ion-electron system (eV)
  ---------------------------------------------------
  alpha Z        PSCENC =        18.80097473
  Ewald energy   TEWEN  =     60900.70978156
  -Hartree energ DENC   =    -64565.00123132
  -exchange      EXHF   =         0.00000000
  -V(xc)+E(xc)   XCENC  =       424.53914453
  PAW double counting   =     12709.03389791   -12730.00148060
  entropy T*S    EENTRO =         0.00000000
  eigenvalues    EBANDS =     -1598.04897163
  atomic energy  EATOM  =      4561.79852166
  Solvation  Ediel_sol  =         0.00000000
  ---------------------------------------------------
  free energy    TOTEN  =      -278.16936317 eV

  energy without entropy =     -278.16936317  energy(sigma->0) =     -278.16936317


--------------------------------------------------------------------------------------------------------




--------------------------------------- Iteration      1(  26)  ---------------------------------------


    POTLOK:  cpu time    0.4469: real time    0.4565
    SETDIJ:  cpu time    0.0026: real time    0.0026
     EDDAV:  cpu time   38.4271: real time   38.5183
 BZINTS: Fermi energy: -3.888020;124.000000 electrons
         Band energy:***********;  BLOECHL correction: -0.002807
       DOS:  cpu time    0.0063: real time    0.0063
    CHARGE:  cpu time    3.0721: real time    3.0806
    MIXING:  cpu time    0.0277: real time    0.0277
    --------------------------------------------
      LOOP:  cpu time   41.9827: real time   42.0920

 eigenvalue-minimisations  :  2010
 total energy-change (2. order) : 0.3144180E-04  (-0.2109729E-03)
 number of electron     123.9999996 magnetization 
 augmentation part        2.9018612 magnetization 

 Broyden mixing:
  rms(total) = 0.26782E-01    rms(broyden)= 0.26781E-01
  rms(prec ) = 0.27590E-01
  weight for this iteration     100.00

 eigenvalues of (default mixing * dielectric matrix)
  average eigenvalue GAMMA=   1.3366
  7.0918  3.2514  2.5826  2.1988  1.6302  1.6302  1.1463  1.1463  0.9148  0.9148
  0.9702  0.7689  0.7057  0.7057  0.5261  0.5261  0.5537  0.4391  0.1817  0.1817
  0.0014

 Free energy of the ion-electron system (eV)
  ---------------------------------------------------
  alpha Z        PSCENC =        18.80097473
  Ewald energy   TEWEN  =     60900.70978156
  -Hartree energ DENC   =    -64564.95218346
  -exchange      EXHF   =         0.00000000
  -V(xc)+E(xc)   XCENC  =       424.53889456
  PAW double counting   =     12708.80960092   -12729.77725583
  entropy T*S    EENTRO =         0.00000000
  eigenvalues    EBANDS =     -1598.09766586
  atomic energy  EATOM  =      4561.79852166
  Solvation  Ediel_sol  =         0.00000000
  ---------------------------------------------------
  free energy    TOTEN  =      -278.16933173 eV

  energy without entropy =     -278.16933173  energy(sigma->0) =     -278.16933173


--------------------------------------------------------------------------------------------------------




--------------------------------------- Iteration      1(  27)  ---------------------------------------


    POTLOK:  cpu time    0.4588: real time    0.4598
    SETDIJ:  cpu time    0.0044: real time    0.0044
     EDDAV:  cpu time   39.1970: real time   39.2911
 BZINTS: Fermi energy: -3.888027;124.000000 electrons
         Band energy:***********;  BLOECHL correction: -0.002756
       DOS:  cpu time    0.0063: real time    0.0063
    --------------------------------------------
      LOOP:  cpu time   39.6664: real time   39.7616

 eigenvalue-minimisations  :  2058
 total energy-change (2. order) :-0.2644629E-07  (-0.5285596E-06)
 number of electron     123.9999996 magnetization 
 augmentation part        2.9018612 magnetization 

 Free energy of the ion-electron system (eV)
  ---------------------------------------------------
  alpha Z        PSCENC =        18.80097473
  Ewald energy   TEWEN  =     60900.70978156
  -Hartree energ DENC   =    -64564.94921561
  -exchange      EXHF   =         0.00000000
  -V(xc)+E(xc)   XCENC  =       424.53884276
  PAW double counting   =     12708.81355738   -12729.78120108
  entropy T*S    EENTRO =         0.00000000
  eigenvalues    EBANDS =     -1598.10059315
  atomic energy  EATOM  =      4561.79852166
  Solvation  Ediel_sol  =         0.00000000
  ---------------------------------------------------
  free energy    TOTEN  =      -278.16933176 eV

  energy without entropy =     -278.16933176  energy(sigma->0) =     -278.16933176


--------------------------------------------------------------------------------------------------------




 average (electrostatic) potential at core
  the test charge radii are     0.6991
  (the norm of the test charge is              1.0000)
       1 -59.3372       2 -59.1249       3 -59.2085       4 -59.1195       5 -59.3351
       6 -59.4578       7 -59.3095       8 -59.4612       9 -59.2066      10 -59.1234
      11 -59.2087      12 -59.1179      13 -59.4840      14 -59.9323      15 -59.4922
      16 -59.1175      17 -59.3335      18 -59.4559      19 -59.4796      20 -59.9211
      21 -59.8707      22 -59.4671      23 -59.4461      24 -59.3096      25 -59.4612
      26 -59.4951      27 -59.1236      28 -59.4744      29 -59.4482      30 -59.3021
      31 -59.2694
 
 
 
 E-fermi :  -3.8880     XC(G=0):  -0.9696     alpha+bet : -0.7399


 k-point     1 :       0.0000    0.0000    0.0000
  band No.  band energies     occupation 
      1     -23.2770      2.00000
      2     -21.9325      2.00000
      3     -21.9286      2.00000
      4     -21.8938      2.00000
      5     -21.8839      2.00000
      6     -21.8797      2.00000
      7     -21.0992      2.00000
      8     -19.1612      2.00000
      9     -19.1557      2.00000
     10     -19.0918      2.00000
     11     -18.9457      2.00000
     12     -18.9387      2.00000
     13     -18.5618      2.00000
     14     -18.0890      2.00000
     15     -18.0803      2.00000
     16     -17.4734      2.00000
     17     -16.8963      2.00000
     18     -16.8788      2.00000
     19     -15.8915      2.00000
     20     -14.4674      2.00000
     21     -14.3956      2.00000
     22     -14.3745      2.00000
     23     -14.1456      2.00000
     24     -14.1368      2.00000
     25     -13.1312      2.00000
     26     -12.8762      2.00000
     27     -12.7758      2.00000
     28     -12.7737      2.00000
     29     -12.2845      2.00000
     30     -12.2835      2.00000
     31     -12.0942      2.00000
     32     -11.3911      2.00000
     33     -11.3443      2.00000
     34     -11.3425      2.00000
     35     -11.3392      2.00000
     36     -10.8285      2.00000
     37     -10.8279      2.00000
     38     -10.3083      2.00000
     39      -9.8102      2.00000
     40      -9.7893      2.00000
     41      -9.7224      2.00000
     42      -9.7198      2.00000
     43      -9.7091      2.00000
     44      -9.7005      2.00000
     45      -9.6915      2.00000
     46      -9.1128      2.00000
     47      -8.9486      2.00000
     48      -8.9363      2.00000
     49      -8.8914      2.00000
     50      -8.7909      2.00000
     51      -7.8763      2.00000
     52      -7.4508      2.00000
     53      -7.4367      2.00000
     54      -6.6001      2.00000
     55      -6.5899      2.00000
     56      -6.5243      2.00000
     57      -6.5125      2.00000
     58      -6.5069      2.00000
     59      -6.3308      2.00000
     60      -6.1576      2.00000
     61      -6.1490      2.00000
     62      -4.3550      2.00000
     63      -3.5544      0.00000
     64      -3.5145      0.00000
     65      -2.0809      0.00000
     66      -2.0651      0.00000
     67      -1.8077      0.00000
     68      -1.1659      0.00000
     69      -0.9299      0.00000
     70      -0.9098      0.00000
     71      -0.7920      0.00000
     72      -0.7888      0.00000
     73      -0.3544      0.00000
     74       0.2923      0.00000
     75       0.4722      0.00000
     76       0.5507      0.00000
     77       0.6077      0.00000
     78       0.8873      0.00000

 k-point     2 :       0.2000    0.0000    0.0000
[...]
 k-point    13 :      -0.2000    0.4000    0.0000
  band No.  band energies     occupation 
      1     -22.9765      2.00000
      2     -22.8392      2.00000
      3     -22.5256      2.00000
      4     -21.7115      2.00000
      5     -21.2345      2.00000
      6     -20.9740      2.00000
      7     -20.3779      2.00000
      8     -20.2065      2.00000
      9     -20.0500      2.00000
     10     -19.8016      2.00000
     11     -19.5124      2.00000
     12     -18.8699      2.00000
     13     -17.9778      2.00000
     14     -17.7088      2.00000
     15     -17.2436      2.00000
     16     -16.6656      2.00000
     17     -16.4499      2.00000
     18     -16.3906      2.00000
     19     -16.1764      2.00000
     20     -15.4130      2.00000
     21     -15.0472      2.00000
     22     -14.7257      2.00000
     23     -14.3408      2.00000
     24     -14.1223      2.00000
     25     -13.8437      2.00000
     26     -13.6947      2.00000
     27     -12.6426      2.00000
     28     -12.4511      2.00000
     29     -11.9663      2.00000
     30     -11.6446      2.00000
     31     -11.5125      2.00000
     32     -11.2235      2.00000
     33     -10.9529      2.00000
     34     -10.8053      2.00000
     35     -10.7848      2.00000
     36     -10.6940      2.00000
     37     -10.5402      2.00000
     38     -10.4921      2.00000
     39     -10.4471      2.00000
     40     -10.3119      2.00000
     41     -10.0639      2.00000
     42     -10.0306      2.00000
     43      -9.6283      2.00000
     44      -9.4784      2.00000
     45      -9.1873      2.00000
     46      -8.9307      2.00000
     47      -8.9140      2.00000
     48      -8.6730      2.00000
     49      -8.4528      2.00000
     50      -8.2208      2.00000
     51      -7.9606      2.00000
     52      -7.8177      2.00000
     53      -7.7547      2.00000
     54      -7.6824      2.00000
     55      -7.3977      2.00000
     56      -7.2716      2.00000
     57      -7.0713      2.00000
     58      -6.5348      2.00000
     59      -5.7665      2.00000
     60      -5.4780      2.00000
     61      -4.7896      2.00000
     62      -3.8780      1.98092
     63      -3.8557      0.19477
     64      -3.5874      0.00000
     65      -3.0669      0.00000
     66      -2.2911      0.00000
     67      -2.0635      0.00000
     68      -1.5059      0.00000
     69      -0.6532      0.00000
     70      -0.2945      0.00000
     71       0.1441      0.00000
     72       0.1842      0.00000
     73       0.2170      0.00000
     74       0.3636      0.00000
     75       0.5996      0.00000
     76       0.6986      0.00000
     77       0.9295      0.00000
     78       0.9381      0.00000


--------------------------------------------------------------------------------------------------------


 soft charge-density along one line, spin component           1
         0         1         2         3         4         5         6         7         8         9
 total charge-density along one line
 
 pseudopotential strength for first ion, spin component:           1
 10.285  13.679  -0.000   0.000  -0.000   0.000  -0.000   0.001
 13.679  18.191  -0.000   0.000  -0.000   0.001  -0.000   0.001
 -0.000  -0.000  -4.408   0.000   0.000   8.622  -0.000  -0.001
  0.000   0.000   0.000  -4.400   0.000  -0.000   8.611  -0.000
 -0.000  -0.000   0.000   0.000  -4.407  -0.001  -0.000   8.621
  0.000   0.001   8.622  -0.000  -0.001 -19.005   0.000   0.001
 -0.000  -0.000  -0.000   8.611  -0.000   0.000 -18.992   0.000
  0.001   0.001  -0.001  -0.000   8.621   0.001   0.000 -19.003
 total augmentation occupancy for first ion, spin component:           1
  8.036  -3.556   0.023  -0.000   0.027   0.003  -0.000   0.003
 -3.556   1.631  -0.011  -0.000  -0.011  -0.002   0.000  -0.001
  0.023  -0.011   1.805  -0.000   0.021   0.170  -0.000   0.001
 -0.000  -0.000  -0.000   1.203   0.000  -0.000   0.072   0.000
  0.027  -0.011   0.021   0.000   1.833   0.001   0.000   0.172
  0.003  -0.002   0.170  -0.000   0.001   0.017  -0.000   0.000
 -0.000   0.000  -0.000   0.072   0.000  -0.000   0.005   0.000
  0.003  -0.001   0.001   0.000   0.172   0.000   0.000   0.018


------------------------ aborting loop because EDIFF is reached ----------------------------------------


    CHARGE:  cpu time    3.1050: real time    3.1125
    FORLOC:  cpu time    0.0930: real time    0.0932
    FORNL :  cpu time    6.7050: real time    6.7209
    STRESS:  cpu time   26.9217: real time   26.9856
    FORCOR:  cpu time    0.5556: real time    0.5600
    FORHAR:  cpu time    0.1960: real time    0.1965
    MIXING:  cpu time    0.0486: real time    0.0487
    OFIELD:  cpu time    0.0001: real time    0.0001

  Hirshfeld charges:
            ion         q(e)     
   ------------------------------
      1     C           0.002
      2     C          -0.008
      3     C           0.001
      4     C          -0.007
      5     C           0.003
      6     C           0.009
      7     C          -0.003
      8     C           0.008
      9     C           0.001
     10     C          -0.011
     11     C           0.001
     12     C          -0.017
     13     C          -0.006
     14     C           0.025
     15     C          -0.006
     16     C          -0.016
     17     C           0.002
     18     C           0.009
     19     C          -0.009
     20     C           0.018
     21     C           0.021
     22     C          -0.008
     23     C           0.009
     24     C          -0.002
     25     C           0.010
     26     C          -0.006
     27     C          -0.018
     28     C          -0.006
     29     C           0.010
     30     C          -0.002
     31     C          -0.003

  Tkatchenko/Scheffler method for vdW energy calculation
  ---------------------------------------------------------------------------------------------

  Parameters of vdW forcefield:
            C6ts              R0ts           ALPHAts        RELVOL
            (au)              (au)            (au)                
   ---------------------------------------------------------------
   C          32.915          3.388         10.085          0.840
   C          32.909          3.388         10.084          0.840
   C          32.937          3.389         10.089          0.841
   C          32.895          3.388         10.082          0.840
   C          32.903          3.388         10.083          0.840
   C          33.007          3.390         10.099          0.842
   C          32.946          3.389         10.090          0.841
   C          33.015          3.390         10.101          0.842
   C          32.932          3.389         10.088          0.841
   C          32.913          3.388         10.085          0.840
   C          32.929          3.389         10.087          0.841
   C          33.408          3.397         10.160          0.847
   C          33.879          3.405         10.232          0.853
   C          35.520          3.432         10.477          0.873
   C          33.878          3.405         10.232          0.853
   C          33.399          3.397         10.159          0.847
   C          32.880          3.388         10.080          0.840
   C          32.959          3.389         10.092          0.841
   C          33.830          3.404         10.224          0.852
   C          35.383          3.429         10.456          0.871
   C          35.334          3.429         10.449          0.871
   C          33.808          3.403         10.221          0.852
   C          32.958          3.389         10.092          0.841
   C          32.917          3.388         10.085          0.840
   C          32.994          3.390         10.097          0.841
   C          33.838          3.404         10.226          0.852
   C          33.418          3.397         10.162          0.847
   C          33.818          3.404         10.223          0.852
   C          32.984          3.390         10.096          0.841
   C          32.915          3.388         10.085          0.840
   C          32.865          3.387         10.078          0.840
  Edisp (eV):   -2.52860
    FORVDW:  cpu time    9.6976: real time    9.7206

  FORCE on cell =-STRESS in cart. coord.  units (eV):
  Direction    XX          YY          ZZ          XY          YZ          ZX
  --------------------------------------------------------------------------------------
  Alpha Z    18.93415    18.93415    18.93415
  Ewald   65197.01767 65195.10680-69270.79588    -0.91457     0.18710     0.07233
  Hartree 64557.75394 64556.43097-64327.28204    -1.22451     0.18778     0.09771
  E(xc)    -458.89288  -458.89990  -476.06068    -0.00371    -0.00010    -0.00026
  Local  ************************132020.22016     2.16053    -0.37834    -0.15931
  n-local  -103.13312  -103.26971  -103.07477    -0.09910    -0.00030     0.00592
  augment   -11.94985   -11.94636   -10.74239     0.00131     0.00001    -0.00016
  Kinetic  1843.27232  1843.60870  2148.34720     0.19024     0.00153    -0.01772
  Fock        0.00000     0.00000     0.00000     0.00000     0.00000     0.00000
  vdW        -3.07391    -3.07194     0.00801     0.00221    -0.00000     0.00001
  -------------------------------------------------------------------------------------
  Total      -0.29713    -0.33976    -0.44623     0.11239    -0.00232    -0.00149
  in kB      -0.11418    -0.13056    -0.17148     0.04319    -0.00089    -0.00057
  external pressure =       -0.14 kB  Pullay stress =        0.00 kB


 VOLUME and BASIS-vectors are now :
 -----------------------------------------------------------------------------
  energy-cutoff  :      850.00
  volume of cell :     4169.35
      direct lattice vectors                 reciprocal lattice vectors
     9.816206797  0.007065829  0.000009519     0.101914748 -0.058908990 -0.000000011
     4.920842279  8.513240569  0.000017268    -0.000084587  0.117512977 -0.000000173
     0.000047872  0.000073598 49.912578381    -0.000000019 -0.000000029  0.020035030

  length of vectors
     9.816209340  9.833104989 49.912578381     0.117715270  0.117513007  0.020035030


 FORCES acting on ions
    electron-ion (+dipol)            ewald-force                    non-local-force                 convergence-correction
 -----------------------------------------------------------------------------------------------
   0.377E+01 0.269E+01 0.202E-02   -.344E+01 -.253E+01 -.276E-02   -.303E+00 -.157E+00 0.109E-02   -.222E-01 -.150E-01 -.428E-03
   0.273E+01 0.630E+00 0.906E-02   -.261E+01 -.533E+00 -.981E-02   -.611E-01 -.376E-01 0.604E-03   -.269E-01 -.189E-01 -.619E-04
   0.444E+01 -.242E+01 0.792E-02   -.428E+01 0.224E+01 -.851E-02   -.190E+00 0.881E-01 0.449E-03   -.426E-01 0.502E-01 0.153E-04
   0.792E+00 -.280E+01 -.349E-02   -.786E+00 0.268E+01 0.315E-02   0.124E-01 0.107E+00 0.209E-03   -.490E-02 0.480E-01 0.610E-04
   -.528E+00 -.444E+01 -.646E-02   0.571E+00 0.406E+01 0.608E-02   -.213E-01 0.329E+00 -.209E-03   -.113E-01 0.238E-01 0.456E-03
   -.113E+02 0.560E+01 -.978E-02   0.107E+02 -.520E+01 0.800E-02   0.542E+00 -.361E+00 0.596E-02   0.818E-01 -.184E-01 -.370E-02
   -.457E+01 0.250E+01 -.305E-02   0.444E+01 -.240E+01 0.259E-02   0.111E+00 -.569E-01 0.528E-03   0.559E-01 -.443E-01 -.110E-04
   -.106E+02 0.706E+01 -.115E-01   0.991E+01 -.672E+01 0.803E-02   0.585E+00 -.298E+00 -.348E-03   0.610E-01 -.778E-01 0.361E-02
   0.537E+00 0.456E+01 -.976E-02   -.520E+00 -.424E+01 0.955E-02   -.376E-01 -.249E+00 -.169E-03   -.581E-02 -.894E-01 0.487E-03
   -.160E+01 0.895E+00 -.103E-01   0.150E+01 -.801E+00 0.118E-01   0.760E-01 -.317E-01 -.118E-02   0.257E-01 -.241E-01 0.338E-04
   -.369E+01 -.259E+01 -.860E-02   0.348E+01 0.237E+01 0.961E-02   0.188E+00 0.130E+00 -.519E-03   0.406E-01 0.558E-01 -.479E-03
   -.183E+02 -.119E+02 0.407E-01   0.177E+02 0.116E+02 -.418E-01   0.389E+00 0.199E+00 0.384E-02   0.125E+00 0.875E-01 -.267E-02
   -.290E+02 -.235E+01 0.283E-01   0.281E+02 0.155E+01 -.278E-01   0.805E+00 0.668E+00 0.319E-02   0.202E+00 0.671E-01 -.394E-02
   -.993E+02 0.571E+02 0.550E-01   0.980E+02 -.564E+02 -.606E-01   0.117E+01 -.672E+00 0.271E-02   0.210E+00 -.105E+00 0.272E-04
   -.126E+02 0.264E+02 -.901E-02   0.127E+02 -.252E+02 0.573E-02   -.183E+00 -.104E+01 -.139E-02   0.782E-01 -.209E+00 0.385E-02
   0.123E+01 0.220E+02 -.780E-02   -.127E+01 -.213E+02 0.786E-02   0.413E-01 -.445E+00 -.356E-02   0.136E-01 -.180E+00 0.260E-02
   -.319E+01 0.175E+01 0.129E-01   0.286E+01 -.154E+01 -.124E-01   0.289E+00 -.174E+00 -.814E-03   0.272E-01 -.312E-01 0.301E-04
   -.158E+01 -.121E+02 -.174E-01   0.156E+01 0.113E+02 0.134E-01   -.270E-01 0.627E+00 0.165E-02   0.323E-01 0.709E-01 0.261E-02
   -.141E+02 -.237E+02 -.623E-01   0.130E+02 0.232E+02 0.619E-01   0.961E+00 0.339E+00 0.729E-03   0.128E+00 0.142E+00 0.147E-03
   -.287E+01 -.115E+03 -.156E-01   0.281E+01 0.115E+03 0.390E-01   0.117E-02 0.331E+00 -.157E-01   0.559E-02 0.244E+00 -.556E-02
   0.988E+02 0.599E+02 -.192E+00   -.983E+02 -.596E+02 0.222E+00   -.267E+00 -.150E+00 -.322E-01   -.204E+00 -.108E+00 0.577E-02
   0.138E+02 0.239E+02 0.784E-01   -.140E+02 -.226E+02 -.819E-01   0.173E+00 -.101E+01 0.442E-02   -.592E-01 -.242E+00 -.639E-04
   0.968E+01 0.739E+01 0.279E-01   -.904E+01 -.698E+01 -.313E-01   -.551E+00 -.299E+00 0.546E-02   -.691E-01 -.987E-01 -.260E-02
   -.109E+01 -.438E+01 0.222E-03   0.111E+01 0.421E+01 0.108E-03   0.461E-02 0.113E+00 0.901E-04   -.309E-04 0.627E-01 -.293E-03
   0.422E+00 -.130E+02 0.261E-01   -.454E+00 0.123E+02 -.277E-01   0.260E-01 0.606E+00 0.341E-02   -.306E-01 0.730E-01 -.267E-02
   0.143E+02 -.252E+02 0.922E-01   -.131E+02 0.247E+02 -.909E-01   -.108E+01 0.302E+00 0.291E-03   -.126E+00 0.146E+00 -.281E-02
   0.201E+02 -.116E+02 -.213E-01   -.196E+02 0.113E+02 0.306E-01   -.434E+00 0.276E+00 -.964E-02   -.126E+00 0.103E+00 0.150E-03
   0.288E+02 0.496E+00 0.427E-01   -.278E+02 -.143E+01 -.462E-01   -.814E+00 0.769E+00 0.308E-03   -.224E+00 0.964E-01 0.308E-02
   0.114E+02 0.612E+01 0.229E-01   -.108E+02 -.574E+01 -.269E-01   -.509E+00 -.319E+00 0.184E-03   -.105E+00 -.170E-01 0.283E-02
   0.316E+01 0.294E+01 -.123E-01   -.298E+01 -.284E+01 0.128E-01   -.939E-01 -.513E-01 -.879E-03   -.737E-01 -.541E-01 0.345E-03
   -.461E+00 0.297E+00 -.129E-01   0.454E+00 -.292E+00 0.158E-01   -.313E-03 -.851E-02 -.259E-02   -.542E-02 -.106E-01 0.110E-04
 -----------------------------------------------------------------------------------------------
   -.748E+00 0.548E+00 0.332E-01   0.851E-13 0.213E-13 0.763E-16   0.802E+00 -.468E+00 -.340E-01   -.486E-01 -.729E-01 0.831E-03
 
 
 POSITION                                       TOTAL-FORCE (eV/Angst)
 -----------------------------------------------------------------------------------
      0.00366      0.00039     21.96151         0.004377     -0.016526     -0.000091
      1.22452      0.71096     21.96151         0.033122      0.043877     -0.000208
      1.22601      2.12973     21.96152        -0.072917     -0.034615     -0.000115
      2.45388      2.83772     21.96154         0.012993      0.036487     -0.000075
      2.46084      4.25114     21.96155         0.010289     -0.025879     -0.000138
      3.69959      4.96523     21.96155         0.006191      0.024540      0.000486
     13.51254      6.38705     21.96156         0.032745      0.002955      0.000058
      4.92435      7.08370     21.96155        -0.021091     -0.034405     -0.000246
      2.45205      0.00329     21.96155        -0.026028     -0.018348      0.000107
      3.67898      0.71152     21.96156        -0.001335      0.040923      0.000274
      3.68018      2.12901     21.96155         0.014256     -0.038126      0.000007
      4.89561      2.83057     21.96147        -0.066850     -0.009020      0.000117
      4.95028      4.24210     21.96146         0.032668     -0.083182     -0.000186
      6.14072      4.96660     21.96141         0.077930     -0.033616     -0.002902
      6.17575      6.36045     21.96154         0.064166     -0.001540     -0.000819
      7.37113      7.11296     21.96156         0.012464      0.057658     -0.000901
      4.90255      0.00549     21.96152        -0.019449      0.003890     -0.000230
      6.13816      0.71519     21.96158        -0.020142     -0.016698      0.000254
      6.13555      2.15616     21.96167        -0.022523      0.001226      0.000443
      7.35125      2.81365     21.96163        -0.050239     -0.029791      0.002203
      8.61519      4.99551     21.96203         0.002275      0.070871      0.004550
      8.57602      6.37640     21.96146        -0.047704      0.042317      0.000906
      9.82542      7.09413     21.96149         0.030800      0.020432     -0.000519
     12.28226      8.52013     21.96156         0.028476     -0.007780      0.000126
      8.58321      0.72104     21.96147        -0.034508     -0.004795     -0.000896
      8.58197      2.16765     21.96138         0.003757      0.031691     -0.001183
      9.82567      2.83879     21.96159         0.022205      0.037169     -0.000185
      9.78826      4.25246     21.96153        -0.024331     -0.095748     -0.000134
     11.04160      4.97307     21.96151         0.008536      0.047834     -0.000994
     11.05013      6.38789     21.96157         0.021719      0.001860     -0.000005
     12.28215      7.09850     21.96159        -0.011848     -0.013661      0.000297
 -----------------------------------------------------------------------------------
    total drift:                                0.004662      0.007076      0.000065


--------------------------------------------------------------------------------------------------------



  FREE ENERGIE OF THE ION-ELECTRON SYSTEM (eV)
  ---------------------------------------------------
  free  energy   TOTEN  =      -280.77038587 eV

  energy  without entropy=     -280.77038587  energy(sigma->0) =     -280.77038587
 
 d Force = 0.2121551E-02[-0.350E-03, 0.459E-02]  d Energy = 0.4521606E-02-0.240E-02
 d Force =-0.5500792E-01[-0.689E-01,-0.412E-01]  d Ewald  =-0.3918201E+02 0.391E+02


--------------------------------------------------------------------------------------------------------


    POTLOK:  cpu time    0.5055: real time    0.5067


--------------------------------------------------------------------------------------------------------


 Quasi-Newton relaxation of ions (Broydens 2nd method)
  g(Force)  = 0.389E-02   g(Stress)= 0.666E-03

 retain information from N=  1 steps
 eigenvalues of (default step * inverse Hessian matrix)
  average eigenvalue of G=   0.0863
 eigenvalue spectrum of G is  0.0863


--------------------------------------------------------------------------------------------------------


  
 reached required accuracy - stopping structural energy minimisation
     LOOP+:  cpu time 1355.4424: real time 1360.7569
    4ORBIT:  cpu time    0.0000: real time    0.0000

 total amount of memory used by VASP MPI-rank0   248147. kBytes
=======================================================================

   base      :      30000. kBytes
   nonl-proj :      39314. kBytes
   fftplans  :      41100. kBytes
   grid      :      57575. kBytes
   one-center:         12. kBytes
   wavefun   :      80146. kBytes
 
  
  
 General timing and accounting informations for this job:
 ========================================================
  
                  Total CPU time used (sec):    16569.848
                            User time (sec):    15952.857
                          System time (sec):      616.990
                         Elapsed time (sec):    16640.030
  
                   Maximum memory used (kb):      338828.
                   Average memory used (kb):           0.
  
                          Minor page faults:     17250477
                          Major page faults:            2
                 Voluntary context switches:         8130
