<?xml version="1.0" encoding="ISO-8859-1"?>
<modeling>
 <generator>
  <i name="program" type="string">vasp </i>
  <i name="version" type="string">5.4.4.18Apr17-6-g9f103f2a35  </i>
  <i name="subversion" type="string">(build Jan 12 2023 11:40:15) complex            parallel </i>
  <i name="platform" type="string">LinuxIFC </i>
  <i name="date" type="string">2023 12 04 </i>
  <i name="time" type="string">11:08:20 </i>
 </generator>
 <incar>
  <i type="int" name="ISTART">     0</i>
  <i type="string" name="PREC">accurate   (precision level)</i>
  <i type="string" name="ALGO"> Normal</i>
  <i type="int" name="ISPIN">     1</i>
  <i type="int" name="ICHARG">     2</i>
  <i type="int" name="NELM">   150</i>
  <i type="int" name="IBRION">     1</i>
  <i name="EDIFF">      0.00000100</i>
  <i name="EDIFFG">      0.01000000</i>
  <i type="int" name="NSW">  1000</i>
  <i type="int" name="ISIF">     3</i>
  <i type="int" name="ISYM">     0</i>
  <i name="ENCUT">    850.00000000</i>
  <i type="logical" name="LREAL"> F  </i>
  <i type="int" name="ISMEAR">    -5</i>
  <i name="KSPACING">      0.15000000</i>
  <i type="logical" name="KGAMMA"> T  </i>
  <i type="logical" name="LWAVE"> F  </i>
  <i type="logical" name="LCHARG"> F  </i>
  <v type="int" name="KPOINT_BSE">    -1     0     0     0</v>
  <i type="int" name="NELM">   150</i>
 </incar>
 <structure name="primitive_cell" >
  <crystal>
   <varray name="basis" >
    <v>       9.84672000       0.00000000       0.00000000 </v>
    <v>       4.93000000       8.52848000       0.00000000 </v>
    <v>       0.00000000       0.00000000      50.00000000 </v>
   </varray>
   <i name="volume">   4198.87772928 </i>
   <varray name="rec_basis" >
    <v>       0.10155666      -0.05870616       0.00000000 </v>
    <v>       0.00000000       0.11725419       0.00000000 </v>
    <v>       0.00000000       0.00000000       0.02000000 </v>
   </varray>
  </crystal>
  <varray name="positions" >
   <v>       0.00051788       0.00044240       0.44000000 </v>
   <v>       0.08261287       0.08265508       0.44000000 </v>
   <v>      -0.16673742       0.08361840       0.44000000 </v>
   <v>       0.08376431      -0.16683721       0.44000000 </v>
   <v>       0.24945290       0.00126362       0.44000000 </v>
   <v>       0.00123391       0.24951738       0.44000000 </v>
   <v>      -0.25017884      -0.00020329       0.44000000 </v>
   <v>      -0.00012301      -0.25023109       0.44000000 </v>
   <v>      -0.25158736       0.25378043       0.44000000 </v>
   <v>       0.25393386      -0.25169597       0.44000000 </v>
   <v>       0.33247181      -0.16549265       0.44000000 </v>
   <v>      -0.16562797       0.33252139       0.44000000 </v>
   <v>      -0.16657130      -0.16673664       0.44000000 </v>
   <v>      -0.41553966       0.32986108       0.44000000 </v>
   <v>       0.33054941      -0.41572301       0.44000000 </v>
   <v>       0.33411657       0.08292950       0.44000000 </v>
   <v>       0.08291691       0.33410075       0.44000000 </v>
   <v>      -0.41708474       0.08355137       0.44000000 </v>
   <v>       0.08378260      -0.41718374       0.44000000 </v>
   <v>       0.24894138       0.24904430       0.44000000 </v>
   <v>       0.49829708      -0.25157642       0.44000000 </v>
   <v>      -0.25184644       0.49843493       0.44000000 </v>
   <v>      -0.25007235      -0.25010159       0.44000000 </v>
   <v>       0.49767332       0.25325874       0.44000000 </v>
   <v>       0.25353828       0.49777145       0.44000000 </v>
   <v>       0.49917141       0.00024332       0.44000000 </v>
   <v>       0.00029781       0.49914275       0.44000000 </v>
   <v>      -0.41735430      -0.16667025       0.44000000 </v>
   <v>      -0.16670548      -0.41740172       0.44000000 </v>
   <v>      -0.41526026      -0.41493970       0.44000000 </v>
   <v>       0.33289354       0.33285143       0.44000000 </v>
  </varray>
 </structure>
 <varray name="primitive_index" >
  <v type="int" >        1 </v>
  <v type="int" >        2 </v>
  <v type="int" >       25 </v>
  <v type="int" >        8 </v>
  <v type="int" >        9 </v>
  <v type="int" >        3 </v>
  <v type="int" >       24 </v>
  <v type="int" >        7 </v>
  <v type="int" >       26 </v>
  <v type="int" >       15 </v>
  <v type="int" >       16 </v>
  <v type="int" >       27 </v>
  <v type="int" >       31 </v>
  <v type="int" >       20 </v>
  <v type="int" >       14 </v>
  <v type="int" >       10 </v>
  <v type="int" >        4 </v>
  <v type="int" >       18 </v>
  <v type="int" >        6 </v>
  <v type="int" >       11 </v>
  <v type="int" >       22 </v>
  <v type="int" >       28 </v>
  <v type="int" >       30 </v>
  <v type="int" >       19 </v>
  <v type="int" >       13 </v>
  <v type="int" >       17 </v>
  <v type="int" >        5 </v>
  <v type="int" >       23 </v>
  <v type="int" >       29 </v>
  <v type="int" >       21 </v>
  <v type="int" >       12 </v>
 </varray>
 <kpoints>
  <generation param="Gamma">
   <v type="int" name="divisions">       5        5        1 </v>
   <v name="usershift">      0.00000000       0.00000000       0.00000000 </v>
   <v name="genvec1">      0.20000000      -0.00000000       0.00000000 </v>
   <v name="genvec2">      0.00000000       0.20000000       0.00000000 </v>
   <v name="genvec3">      0.00000000       0.00000000       1.00000000 </v>
   <v name="shift">      0.00000000       0.00000000       0.00000000 </v>
  </generation>
  <varray name="kpointlist" >
   <v>       0.00000000       0.00000000       0.00000000 </v>
   <v>       0.20000000       0.00000000       0.00000000 </v>
   <v>       0.40000000       0.00000000       0.00000000 </v>
   <v>       0.00000000       0.20000000       0.00000000 </v>
   <v>       0.20000000       0.20000000       0.00000000 </v>
   <v>       0.40000000       0.20000000       0.00000000 </v>
   <v>      -0.40000000       0.20000000       0.00000000 </v>
   <v>      -0.20000000       0.20000000       0.00000000 </v>
   <v>       0.00000000       0.40000000       0.00000000 </v>
   <v>       0.20000000       0.40000000       0.00000000 </v>
   <v>       0.40000000       0.40000000       0.00000000 </v>
   <v>      -0.40000000       0.40000000       0.00000000 </v>
   <v>      -0.20000000       0.40000000       0.00000000 </v>
  </varray>
  <varray name="weights" >
   <v>       0.04000000 </v>
   <v>       0.08000000 </v>
   <v>       0.08000000 </v>
   <v>       0.08000000 </v>
   <v>       0.08000000 </v>
   <v>       0.08000000 </v>
   <v>       0.08000000 </v>
   <v>       0.08000000 </v>
   <v>       0.08000000 </v>
   <v>       0.08000000 </v>
   <v>       0.08000000 </v>
   <v>       0.08000000 </v>
   <v>       0.08000000 </v>
  </varray>
  <varray name="tetrahedronlist"  type="int" >
   <v type="int" >        2        1        1        2        5 </v>
   <v type="int" >        2        1        1        4        5 </v>
   <v type="int" >        2        1        4        4        5 </v>
   <v type="int" >        2        1        2        2        5 </v>
   <v type="int" >        2        1        2        5        5 </v>
   <v type="int" >        2        1        4        5        5 </v>
   <v type="int" >        2        2        2        3        6 </v>
   <v type="int" >        2        2        2        5        6 </v>
   <v type="int" >        2        2        5        5        6 </v>
   <v type="int" >        2        2        3        3        6 </v>
   <v type="int" >        2        2        3        6        6 </v>
   <v type="int" >        2        2        5        6        6 </v>
   <v type="int" >        4        3        3        3        7 </v>
   <v type="int" >        2        3        3        6        7 </v>
   <v type="int" >        2        3        6        6        7 </v>
   <v type="int" >        2        3        3        7        7 </v>
   <v type="int" >        2        3        6        7        7 </v>
   <v type="int" >        2        2        3        3        8 </v>
   <v type="int" >        2        3        3        7        8 </v>
   <v type="int" >        2        3        7        7        8 </v>
   <v type="int" >        2        2        2        3        8 </v>
   <v type="int" >        2        2        3        8        8 </v>
   <v type="int" >        2        3        7        8        8 </v>
   <v type="int" >        2        1        2        2        4 </v>
   <v type="int" >        2        2        2        4        8 </v>
   <v type="int" >        2        2        4        8        8 </v>
   <v type="int" >        2        1        1        2        4 </v>
   <v type="int" >        2        1        2        4        4 </v>
   <v type="int" >        2        2        4        4        8 </v>
   <v type="int" >        2        4        4        5       10 </v>
   <v type="int" >        2        4        4        9       10 </v>
   <v type="int" >        2        4        9        9       10 </v>
   <v type="int" >        2        4        5        5       10 </v>
   <v type="int" >        2        4        5       10       10 </v>
   <v type="int" >        2        4        9       10       10 </v>
   <v type="int" >        2        5        5        6       11 </v>
   <v type="int" >        2        5        5       10       11 </v>
   <v type="int" >        2        5       10       10       11 </v>
   <v type="int" >        2        5        6        6       11 </v>
   <v type="int" >        2        5        6       11       11 </v>
   <v type="int" >        2        5       10       11       11 </v>
   <v type="int" >        2        6        6        7       12 </v>
   <v type="int" >        2        6        6       11       12 </v>
   <v type="int" >        2        6       11       11       12 </v>
   <v type="int" >        2        6        7        7       12 </v>
   <v type="int" >        2        6        7       12       12 </v>
   <v type="int" >        2        6       11       12       12 </v>
   <v type="int" >        2        7        7        8       13 </v>
   <v type="int" >        2        7        7       12       13 </v>
   <v type="int" >        2        7       12       12       13 </v>
   <v type="int" >        2        7        8        8       13 </v>
   <v type="int" >        2        7        8       13       13 </v>
   <v type="int" >        2        7       12       13       13 </v>
   <v type="int" >        2        4        8        8        9 </v>
   <v type="int" >        2        8        8        9       13 </v>
   <v type="int" >        2        8        9       13       13 </v>
   <v type="int" >        2        4        4        8        9 </v>
   <v type="int" >        2        4        8        9        9 </v>
   <v type="int" >        2        8        9        9       13 </v>
   <v type="int" >        2        9        9       10       13 </v>
   <v type="int" >        4        9        9        9       13 </v>
   <v type="int" >        2        9       10       10       13 </v>
   <v type="int" >        2        9       10       13       13 </v>
   <v type="int" >        2        9        9       13       13 </v>
   <v type="int" >        2       10       10       11       12 </v>
   <v type="int" >        2       10       10       12       13 </v>
   <v type="int" >        2       10       12       13       13 </v>
   <v type="int" >        2       10       11       11       12 </v>
   <v type="int" >        2       10       11       12       12 </v>
   <v type="int" >        2       10       12       12       13 </v>
   <v type="int" >        4       11       11       11       12 </v>
   <v type="int" >        2       11       11       12       12 </v>
  </varray>
  <i name="volumeweight">      0.00666667 </i>
 </kpoints>
 <parameters>
  <separator name="general" >
   <i type="string" name="SYSTEM">unknown system</i>
   <i type="logical" name="LCOMPAT"> F  </i>
  </separator>
  <separator name="electronic" >
   <i type="string" name="PREC">accura</i>
   <i name="ENMAX">    850.00000000</i>
   <i name="ENAUG">    644.87300000</i>
   <i name="EDIFF">      0.00000100</i>
   <i type="int" name="IALGO">    38</i>
   <i type="int" name="IWAVPR">    11</i>
   <i type="int" name="NBANDS">    78</i>
   <i name="NELECT">    124.00000000</i>
   <i type="int" name="TURBO">     0</i>
   <i type="int" name="IRESTART">     0</i>
   <i type="int" name="NREBOOT">     0</i>
   <i type="int" name="NMIN">     0</i>
   <i name="EREF">      0.00000000</i>
   <separator name="electronic smearing" >
    <i type="int" name="ISMEAR">    -5</i>
    <i name="SIGMA">      0.20000000</i>
    <i name="KSPACING">      0.15000000</i>
    <i type="logical" name="KGAMMA"> T  </i>
   </separator>
   <separator name="electronic projectors" >
    <i type="logical" name="LREAL"> F  </i>
    <v name="ROPT">      0.00000000</v>
    <i type="int" name="LMAXPAW">  -100</i>
    <i type="int" name="LMAXMIX">     2</i>
    <i type="logical" name="NLSPLINE"> F  </i>
   </separator>
   <separator name="electronic startup" >
    <i type="int" name="ISTART">     0</i>
    <i type="int" name="ICHARG">     2</i>
    <i type="int" name="INIWAV">     1</i>
   </separator>
   <separator name="electronic spin" >
    <i type="int" name="ISPIN">     1</i>
    <i type="logical" name="LNONCOLLINEAR"> F  </i>
    <v name="MAGMOM">      1.00000000      1.00000000      1.00000000      1.00000000      1.00000000      1.00000000      1.00000000      1.00000000      1.00000000      1.00000000      1.00000000      1.00000000      1.00000000      1.00000000      1.00000000      1.00000000      1.00000000      1.00000000      1.00000000      1.00000000
      1.00000000      1.00000000      1.00000000      1.00000000      1.00000000      1.00000000      1.00000000      1.00000000      1.00000000      1.00000000      1.00000000</v>
    <i name="NUPDOWN">     -1.00000000</i>
    <i type="logical" name="LSORBIT"> F  </i>
    <v name="SAXIS">      0.00000000      0.00000000      1.00000000</v>
    <i type="logical" name="LSPIRAL"> F  </i>
    <v name="QSPIRAL">      0.00000000      0.00000000      0.00000000</v>
    <i type="logical" name="LZEROZ"> F  </i>
   </separator>
   <separator name="electronic exchange-correlation" >
    <i type="logical" name="LASPH"> F  </i>
    <i type="logical" name="LMETAGGA"> F  </i>
   </separator>
   <separator name="electronic convergence" >
    <i type="int" name="NELM">   150</i>
    <i type="int" name="NELMDL">    -5</i>
    <i type="int" name="NELMIN">     2</i>
    <i name="ENINI">    850.00000000</i>
    <separator name="electronic convergence detail" >
     <i type="logical" name="LDIAG"> T  </i>
     <i type="logical" name="LSUBROT"> F  </i>
     <i name="WEIMIN">      0.00100000</i>
     <i name="EBREAK">      0.00000000</i>
     <i name="DEPER">      0.30000000</i>
     <i type="int" name="NRMM">     4</i>
     <i name="TIME">      0.40000000</i>
    </separator>
   </separator>
   <separator name="electronic mixer" >
    <i name="AMIX">      0.40000000</i>
    <i name="BMIX">      1.00000000</i>
    <i name="AMIN">      0.10000000</i>
    <i name="AMIX_MAG">      1.60000000</i>
    <i name="BMIX_MAG">      1.00000000</i>
    <separator name="electronic mixer details" >
     <i type="int" name="IMIX">     4</i>
     <i type="logical" name="MIXFIRST"> F  </i>
     <i type="int" name="MAXMIX">   -45</i>
     <i name="WC">    100.00000000</i>
     <i type="int" name="INIMIX">     1</i>
     <i type="int" name="MIXPRE">     1</i>
     <i type="int" name="MREMOVE">     5</i>
    </separator>
   </separator>
   <separator name="electronic dipolcorrection" >
    <i type="logical" name="LDIPOL"> F  </i>
    <i type="logical" name="LMONO"> F  </i>
    <i type="int" name="IDIPOL">     0</i>
    <i name="EPSILON">      1.00000000</i>
    <v name="DIPOL">   -100.00000000   -100.00000000   -100.00000000</v>
    <i name="EFIELD">      0.00000000</i>
   </separator>
  </separator>
  <separator name="grids" >
   <i type="int" name="NGX">    96</i>
   <i type="int" name="NGY">    96</i>
   <i type="int" name="NGZ">   480</i>
   <i type="int" name="NGXF">   192</i>
   <i type="int" name="NGYF">   192</i>
   <i type="int" name="NGZF">   960</i>
   <i type="logical" name="ADDGRID"> F  </i>
  </separator>
  <separator name="ionic" >
   <i type="int" name="NSW">  1000</i>
   <i type="int" name="IBRION">     1</i>
   <i type="int" name="MDALGO">     0</i>
   <i type="int" name="ISIF">     3</i>
   <i name="PSTRESS">      0.00000000</i>
   <i name="EDIFFG">      0.01000000</i>
   <i type="int" name="NFREE">     0</i>
   <i name="POTIM">      0.50000000</i>
   <i name="SMASS">     -3.00000000</i>
   <i name="SCALEE">      1.00000000</i>
  </separator>
  <separator name="ionic md" >
   <i name="TEBEG">      0.00010000</i>
   <i name="TEEND">      0.00010000</i>
   <i type="int" name="NBLOCK">     1</i>
   <i type="int" name="KBLOCK">  1000</i>
   <i type="int" name="NPACO">   256</i>
   <i name="APACO">     16.00000000</i>
  </separator>
  <separator name="symmetry" >
   <i type="int" name="ISYM">     0</i>
   <i name="SYMPREC">      0.00001000</i>
  </separator>
  <separator name="dos" >
   <i type="int" name="LORBIT">     0</i>
   <v name="RWIGS">     -1.00000000</v>
   <i type="int" name="NEDOS">   301</i>
   <i name="EMIN">     10.00000000</i>
   <i name="EMAX">    -10.00000000</i>
   <i name="EFERMI">      0.00000000</i>
  </separator>
  <separator name="writing" >
   <i type="int" name="NWRITE">     2</i>
   <i type="logical" name="LWAVE"> F  </i>
   <i type="logical" name="LDOWNSAMPLE"> F  </i>
   <i type="logical" name="LCHARG"> F  </i>
   <i type="logical" name="LPARD"> F  </i>
   <i type="logical" name="LVTOT"> F  </i>
   <i type="logical" name="LVHAR"> F  </i>
   <i type="logical" name="LELF"> F  </i>
   <i type="logical" name="LOPTICS"> F  </i>
   <v name="STM">      0.00000000      0.00000000      0.00000000      0.00000000      0.00000000      0.00000000      0.00000000</v>
  </separator>
  <separator name="performance" >
   <i type="int" name="NPAR">     6</i>
   <i type="int" name="NSIM">     4</i>
   <i type="int" name="NBLK">    -1</i>
   <i type="logical" name="LPLANE"> T  </i>
   <i type="logical" name="LSCALAPACK"> F  </i>
   <i type="logical" name="LSCAAWARE"> F  </i>
   <i type="logical" name="LSCALU"> F  </i>
   <i type="logical" name="LASYNC"> F  </i>
   <i type="logical" name="LORBITALREAL"> F  </i>
  </separator>
  <separator name="miscellaneous" >
   <i type="int" name="IDIOT">     3</i>
   <i type="int" name="ISPECIAL">     0</i>
   <i type="logical" name="LMUSIC"> F  </i>
   <v name="POMASS">     12.01100000</v>
   <v name="DARWINR">      0.00000000</v>
   <v name="DARWINV">      1.00000000</v>
   <i type="logical" name="LCORR"> T  </i>
  </separator>
  <i type="logical" name="GGA_COMPAT"> T  </i>
  <i type="logical" name="LBERRY"> F  </i>
  <i type="int" name="ICORELEVEL">     0</i>
  <i type="logical" name="LDAU"> F  </i>
  <i type="int" name="I_CONSTRAINED_M">     0</i>
  <separator name="electronic exchange-correlation" >
   <i type="string" name="GGA">--</i>
   <i type="int" name="VOSKOWN">     0</i>
   <i type="logical" name="LHFCALC"> F  </i>
   <i type="string" name="PRECFOCK"></i>
   <i type="logical" name="LSYMGRAD"> F  </i>
   <i type="logical" name="LHFONE"> F  </i>
   <i type="logical" name="LRHFCALC"> F  </i>
   <i type="logical" name="LTHOMAS"> F  </i>
   <i type="logical" name="LMODELHF"> F  </i>
   <i name="ENCUT4O">     -1.00000000</i>
   <i type="int" name="EXXOEP">     0</i>
   <i type="int" name="FOURORBIT">     0</i>
   <i name="AEXX">      0.00000000</i>
   <i name="HFALPHA">      0.00000000</i>
   <i name="MCALPHA">      0.00000000</i>
   <i name="ALDAX">      1.00000000</i>
   <i name="AGGAX">      1.00000000</i>
   <i name="ALDAC">      1.00000000</i>
   <i name="AGGAC">      1.00000000</i>
   <i type="int" name="NKREDX">     1</i>
   <i type="int" name="NKREDY">     1</i>
   <i type="int" name="NKREDZ">     1</i>
   <i type="logical" name="SHIFTRED"> F  </i>
   <i type="logical" name="ODDONLY"> F  </i>
   <i type="logical" name="EVENONLY"> F  </i>
   <i type="int" name="LMAXFOCK">     0</i>
   <i type="int" name="NMAXFOCKAE">     0</i>
   <i type="logical" name="LFOCKAEDFT"> F  </i>
   <i name="HFSCREEN">      0.00000000</i>
   <i name="HFSCREENC">      0.00000000</i>
   <i type="int" name="NBANDSGWLOW">     0</i>
  </separator>
  <separator name="vdW DFT" >
   <i type="logical" name="LUSE_VDW"> F  </i>
   <i name="Zab_VDW">     -0.84910000</i>
   <i name="PARAM1">      0.12340000</i>
   <i name="PARAM2">      1.00000000</i>
   <i name="PARAM3">      0.00000000</i>
  </separator>
  <separator name="model GW" >
   <i type="int" name="MODEL_GW">     0</i>
   <i name="MODEL_EPS0">     81.26860121</i>
   <i name="MODEL_ALPHA">      1.00000000</i>
  </separator>
  <separator name="linear response parameters" >
   <i type="logical" name="LEPSILON"> F  </i>
   <i type="logical" name="LRPA"> F  </i>
   <i type="logical" name="LNABLA"> F  </i>
   <i type="logical" name="LVEL"> F  </i>
   <i type="int" name="KINTER">     0</i>
   <i name="CSHIFT">      0.10000000</i>
   <i name="OMEGAMAX">     -1.00000000</i>
   <i name="DEG_THRESHOLD">      0.00200000</i>
   <i name="RTIME">     -0.10000000</i>
   <i name="WPLASMAI">      0.00000000</i>
   <v name="DFIELD">      0.00000000      0.00000000      0.00000000</v>
   <v name="WPLASMA">      0.00000000      0.00000000      0.00000000      0.00000000      0.00000000      0.00000000      0.00000000      0.00000000      0.00000000</v>
  </separator>
  <separator name="orbital magnetization" >
   <i type="logical" name="NUCIND"> F  </i>
   <v name="MAGPOS">      0.00000000      0.00000000      0.00000000</v>
   <i type="logical" name="LNICSALL"> T  </i>
   <i type="logical" name="ORBITALMAG"> F  </i>
   <i type="logical" name="LMAGBLOCH"> F  </i>
   <i type="logical" name="LCHIMAG"> F  </i>
   <i type="logical" name="LGAUGE"> T  </i>
   <i type="int" name="MAGATOM">     0</i>
   <v name="MAGDIPOL">      0.00000000      0.00000000      0.00000000</v>
   <v name="AVECCONST">      0.00000000      0.00000000      0.00000000</v>
  </separator>
  <separator name="response functions" >
   <i type="logical" name="LADDER"> F  </i>
   <i type="logical" name="LRPAFORCE"> F  </i>
   <i type="logical" name="LFXC"> F  </i>
   <i type="logical" name="LHARTREE"> T  </i>
   <i type="int" name="IBSE">     0</i>
   <v type="int" name="KPOINT">    -1     0     0     0</v>
   <i type="logical" name="LTCTE"> F  </i>
   <i type="logical" name="LTETE"> F  </i>
   <i type="logical" name="LTRIPLET"> F  </i>
   <i type="logical" name="LFXCEPS"> F  </i>
   <i type="logical" name="LFXHEG"> F  </i>
   <i type="int" name="NATURALO">     2</i>
   <i type="logical" name="L2ORDER"> F  </i>
   <i type="logical" name="LMP2LT"> F  </i>
   <i type="logical" name="LUSEW"> F  </i>
   <i name="ENCUTGW">     -2.00000000</i>
   <i name="ENCUTGWSOFT">     -2.00000000</i>
   <i name="ENCUTLF">     -1.00000000</i>
   <i type="int" name="LMAXMP2">    -1</i>
   <i name="SCISSOR">      0.00000000</i>
   <i type="int" name="NOMEGA">     0</i>
   <i type="int" name="NOMEGAR">     0</i>
   <i type="int" name="NBANDSGW">    -1</i>
   <i type="int" name="NBANDSO">    -1</i>
   <i type="int" name="NBANDSV">    -1</i>
   <i type="int" name="NELM">   150</i>
   <i type="int" name="NELMHF">     1</i>
   <i type="int" name="DIM">     3</i>
   <i type="int" name="ANTIRES">     0</i>
   <i name="OMEGAMAX">    -30.00000000</i>
   <i name="OMEGAMIN">    -30.00000000</i>
   <i name="OMEGATL">   -200.00000000</i>
   <i type="int" name="OMEGAGRID">   140</i>
   <i name="CSHIFT">     -0.10000000</i>
   <i type="logical" name="SELFENERGY"> F  </i>
   <i type="logical" name="LSPECTRAL"> F  </i>
   <i type="logical" name="LSPECTRALGW"> F  </i>
   <i type="logical" name="LSINGLES"> F  </i>
   <i type="logical" name="LFERMIGW"> F  </i>
   <i type="logical" name="ODDONLYGW"> F  </i>
   <i type="logical" name="EVENONLYGW"> F  </i>
   <i type="int" name="NKREDLFX">     1</i>
   <i type="int" name="NKREDLFY">     1</i>
   <i type="int" name="NKREDLFZ">     1</i>
   <i type="int" name="MAXMEM">  2800</i>
   <i type="int" name="TELESCOPE">     0</i>
   <i type="int" name="TAUPAR">     1</i>
   <i type="int" name="OMEGAPAR">    -1</i>
   <i name="LAMBDA">      1.00000000</i>
  </separator>
  <separator name="External order field" >
   <i name="OFIELD_KAPPA">      0.00000000</i>
   <v name="OFIELD_K">      0.00000000      0.00000000      0.00000000</v>
   <i name="OFIELD_Q6_NEAR">      0.00000000</i>
   <i name="OFIELD_Q6_FAR">      0.00000000</i>
   <i name="OFIELD_A">      0.00000000</i>
  </separator>
 </parameters>
 <atominfo>
  <atoms>      31 </atoms>
  <types>       1 </types>
  <array name="atoms" >
   <dimension dim="1">ion</dimension>
   <field type="string">element</field>
   <field type="int">atomtype</field>
   <set>
    <rc><c>C </c><c>   1</c></rc>
    <rc><c>C </c><c>   1</c></rc>
    <rc><c>C </c><c>   1</c></rc>
    <rc><c>C </c><c>   1</c></rc>
    <rc><c>C </c><c>   1</c></rc>
    <rc><c>C </c><c>   1</c></rc>
    <rc><c>C </c><c>   1</c></rc>
    <rc><c>C </c><c>   1</c></rc>
    <rc><c>C </c><c>   1</c></rc>
    <rc><c>C </c><c>   1</c></rc>
    <rc><c>C </c><c>   1</c></rc>
    <rc><c>C </c><c>   1</c></rc>
    <rc><c>C </c><c>   1</c></rc>
    <rc><c>C </c><c>   1</c></rc>
    <rc><c>C </c><c>   1</c></rc>
    <rc><c>C </c><c>   1</c></rc>
    <rc><c>C </c><c>   1</c></rc>
    <rc><c>C </c><c>   1</c></rc>
    <rc><c>C </c><c>   1</c></rc>
    <rc><c>C </c><c>   1</c></rc>
    <rc><c>C </c><c>   1</c></rc>
    <rc><c>C </c><c>   1</c></rc>
    <rc><c>C </c><c>   1</c></rc>
    <rc><c>C </c><c>   1</c></rc>
    <rc><c>C </c><c>   1</c></rc>
    <rc><c>C </c><c>   1</c></rc>
    <rc><c>C </c><c>   1</c></rc>
    <rc><c>C </c><c>   1</c></rc>
    <rc><c>C </c><c>   1</c></rc>
    <rc><c>C </c><c>   1</c></rc>
    <rc><c>C </c><c>   1</c></rc>
   </set>
  </array>
  <array name="atomtypes" >
   <dimension dim="1">type</dimension>
   <field type="int">atomspertype</field>
   <field type="string">element</field>
   <field>mass</field>
   <field>valence</field>
   <field type="string">pseudopotential</field>
   <set>
    <rc><c>  31</c><c>C </c><c>     12.01100000</c><c>      4.00000000</c><c>  PAW_PBE C 08Apr2002                   </c></rc>
   </set>
  </array>
 </atominfo>
 <structure name="initialpos" >
  <crystal>
   <varray name="basis" >
    <v>       9.84672000       0.00000000       0.00000000 </v>
    <v>       4.93000000       8.52848000       0.00000000 </v>
    <v>       0.00000000       0.00000000      50.00000000 </v>
   </varray>
   <i name="volume">   4198.87772928 </i>
   <varray name="rec_basis" >
    <v>       0.10155666      -0.05870616       0.00000000 </v>
    <v>       0.00000000       0.11725419       0.00000000 </v>
    <v>       0.00000000       0.00000000       0.02000000 </v>
   </varray>
  </crystal>
  <varray name="positions" >
   <v>       0.00051788       0.00044240       0.44000000 </v>
   <v>       0.08261287       0.08265508       0.44000000 </v>
   <v>       0.00123391       0.24951738       0.44000000 </v>
   <v>       0.08291691       0.33410075       0.44000000 </v>
   <v>       0.00029781       0.49914275       0.44000000 </v>
   <v>       0.08378260       0.58281626       0.44000000 </v>
   <v>       0.99987699       0.74976891       0.44000000 </v>
   <v>       0.08376431       0.83316279       0.44000000 </v>
   <v>       0.24945290       0.00126362       0.44000000 </v>
   <v>       0.33411657       0.08292950       0.44000000 </v>
   <v>       0.24894138       0.24904430       0.44000000 </v>
   <v>       0.33289354       0.33285143       0.44000000 </v>
   <v>       0.25353828       0.49777145       0.44000000 </v>
   <v>       0.33054941       0.58427699       0.44000000 </v>
   <v>       0.25393386       0.74830403       0.44000000 </v>
   <v>       0.33247181       0.83450735       0.44000000 </v>
   <v>       0.49917141       0.00024332       0.44000000 </v>
   <v>       0.58291526       0.08355137       0.44000000 </v>
   <v>       0.49767332       0.25325874       0.44000000 </v>
   <v>       0.58446034       0.32986108       0.44000000 </v>
   <v>       0.58473974       0.58506030       0.44000000 </v>
   <v>       0.49829708       0.74842358       0.44000000 </v>
   <v>       0.58264570       0.83332975       0.44000000 </v>
   <v>       0.74982116       0.99979671       0.44000000 </v>
   <v>       0.83326258       0.08361840       0.44000000 </v>
   <v>       0.74841264       0.25378043       0.44000000 </v>
   <v>       0.83437203       0.33252139       0.44000000 </v>
   <v>       0.74815356       0.49843493       0.44000000 </v>
   <v>       0.83329452       0.58259828       0.44000000 </v>
   <v>       0.74992765       0.74989841       0.44000000 </v>
   <v>       0.83342870       0.83326336       0.44000000 </v>
  </varray>
 </structure>
 <calculation>
  <scstep>
   <time name="dav">   43.10   43.23</time>
   <time name="total">   43.63   43.76</time>
   <energy>
    <i name="alphaZ">     18.80097473 </i>
    <i name="ewald">  60900.70978156 </i>
    <i name="hartreedc"> -64033.71904816 </i>
    <i name="XCdc">    406.91407893 </i>
    <i name="pawpsdc">   3364.18343778 </i>
    <i name="pawaedc">  -3381.83501785 </i>
    <i name="eentropy">      0.00000000 </i>
    <i name="bandstr">   -382.43376020 </i>
    <i name="atom">   4561.79852166 </i>
    <i name="e_fr_energy">   1454.41896845 </i>
    <i name="e_wo_entrp">   1454.41896845 </i>
    <i name="e_0_energy">   1454.41896845 </i>
   </energy>
  </scstep>
  <scstep>
   <time name="dav">   58.14   58.29</time>
   <time name="total">   58.15   58.29</time>
   <energy>
    <i name="e_fr_energy">    210.25252963 </i>
    <i name="e_wo_entrp">    210.25252963 </i>
    <i name="e_0_energy">    210.25252963 </i>
   </energy>
  </scstep>
  <scstep>
   <time name="dav">   47.01   47.13</time>
   <time name="total">   47.01   47.13</time>
   <energy>
    <i name="e_fr_energy">   -260.04739758 </i>
    <i name="e_wo_entrp">   -260.04739758 </i>
    <i name="e_0_energy">   -260.04739758 </i>
   </energy>
  </scstep>
  <scstep>
   <time name="dav">   47.95   48.12</time>
   <time name="total">   47.96   48.12</time>
   <energy>
    <i name="e_fr_energy">   -296.70525650 </i>
    <i name="e_wo_entrp">   -296.70525650 </i>
    <i name="e_0_energy">   -296.70525650 </i>
   </energy>
  </scstep>
  <scstep>
   <time name="dav">   46.75   46.87</time>
   <time name="total">   49.83   49.95</time>
   <energy>
    <i name="e_fr_energy">   -297.55251267 </i>
    <i name="e_wo_entrp">   -297.55251267 </i>
    <i name="e_0_energy">   -297.55251267 </i>
   </energy>
  </scstep>
  <scstep>
   <time name="dav">   44.57   44.68</time>
   <time name="total">   49.49   51.72</time>
   <energy>
    <i name="e_fr_energy">   -283.60816569 </i>
    <i name="e_wo_entrp">   -283.60816569 </i>
    <i name="e_0_energy">   -283.60816569 </i>
   </energy>
  </scstep>
  <scstep>
   <time name="dav">   45.06   45.20</time>
   <time name="total">   48.82   49.49</time>
   <energy>
    <i name="e_fr_energy">   -279.63186399 </i>
    <i name="e_wo_entrp">   -279.63186399 </i>
    <i name="e_0_energy">   -279.63186399 </i>
   </energy>
  </scstep>
  <scstep>
   <time name="dav">   43.20   43.31</time>
   <time name="total">   46.76   46.88</time>
   <energy>
    <i name="e_fr_energy">   -278.41156729 </i>
    <i name="e_wo_entrp">   -278.41156729 </i>
    <i name="e_0_energy">   -278.41156729 </i>
   </energy>
  </scstep>
  <scstep>
   <time name="dav">   44.27   44.38</time>
   <time name="total">   47.81   47.93</time>
   <energy>
    <i name="e_fr_energy">   -278.26066808 </i>
    <i name="e_wo_entrp">   -278.26066808 </i>
    <i name="e_0_energy">   -278.26066808 </i>
   </energy>
  </scstep>
  <scstep>
   <time name="dav">   40.72   40.83</time>
   <time name="total">   44.27   44.39</time>
   <energy>
    <i name="e_fr_energy">   -278.19753894 </i>
    <i name="e_wo_entrp">   -278.19753894 </i>
    <i name="e_0_energy">   -278.19753894 </i>
   </energy>
  </scstep>
  <scstep>
   <time name="dav">   47.20   47.32</time>
   <time name="total">   50.77   50.90</time>
   <energy>
    <i name="e_fr_energy">   -278.16617149 </i>
    <i name="e_wo_entrp">   -278.16617149 </i>
    <i name="e_0_energy">   -278.16617149 </i>
   </energy>
  </scstep>
  <scstep>
   <time name="dav">   40.67   40.77</time>
   <time name="total">   44.23   44.34</time>
   <energy>
    <i name="e_fr_energy">   -278.15796823 </i>
    <i name="e_wo_entrp">   -278.15796823 </i>
    <i name="e_0_energy">   -278.15796823 </i>
   </energy>
  </scstep>
  <scstep>
   <time name="dav">   43.03   43.53</time>
   <time name="total">   46.63   47.14</time>
   <energy>
    <i name="e_fr_energy">   -278.16199212 </i>
    <i name="e_wo_entrp">   -278.16199212 </i>
    <i name="e_0_energy">   -278.16199212 </i>
   </energy>
  </scstep>
  <scstep>
   <time name="dav">   40.32   40.41</time>
   <time name="total">   43.89   44.01</time>
   <energy>
    <i name="e_fr_energy">   -278.15199684 </i>
    <i name="e_wo_entrp">   -278.15199684 </i>
    <i name="e_0_energy">   -278.15199684 </i>
   </energy>
  </scstep>
  <scstep>
   <time name="dav">   43.89   43.99</time>
   <time name="total">   47.44   47.55</time>
   <energy>
    <i name="e_fr_energy">   -278.15139965 </i>
    <i name="e_wo_entrp">   -278.15139965 </i>
    <i name="e_0_energy">   -278.15139965 </i>
   </energy>
  </scstep>
  <scstep>
   <time name="dav">   39.89   40.01</time>
   <time name="total">   43.43   43.57</time>
   <energy>
    <i name="e_fr_energy">   -278.15483105 </i>
    <i name="e_wo_entrp">   -278.15483105 </i>
    <i name="e_0_energy">   -278.15483105 </i>
   </energy>
  </scstep>
  <scstep>
   <time name="dav">   39.86   39.96</time>
   <time name="total">   43.40   43.51</time>
   <energy>
    <i name="e_fr_energy">   -278.16180097 </i>
    <i name="e_wo_entrp">   -278.16180097 </i>
    <i name="e_0_energy">   -278.16180097 </i>
   </energy>
  </scstep>
  <scstep>
   <time name="dav">   39.02   39.12</time>
   <time name="total">   42.61   42.73</time>
   <energy>
    <i name="e_fr_energy">   -278.16602415 </i>
    <i name="e_wo_entrp">   -278.16602415 </i>
    <i name="e_0_energy">   -278.16602415 </i>
   </energy>
  </scstep>
  <scstep>
   <time name="dav">   39.36   39.46</time>
   <time name="total">   43.12   43.22</time>
   <energy>
    <i name="e_fr_energy">   -278.16615240 </i>
    <i name="e_wo_entrp">   -278.16615240 </i>
    <i name="e_0_energy">   -278.16615240 </i>
   </energy>
  </scstep>
  <scstep>
   <time name="dav">   39.65   39.75</time>
   <time name="total">   43.29   43.40</time>
   <energy>
    <i name="e_fr_energy">   -278.16648203 </i>
    <i name="e_wo_entrp">   -278.16648203 </i>
    <i name="e_0_energy">   -278.16648203 </i>
   </energy>
  </scstep>
  <scstep>
   <time name="dav">   41.98   42.08</time>
   <time name="total">   45.55   45.66</time>
   <energy>
    <i name="e_fr_energy">   -278.16740882 </i>
    <i name="e_wo_entrp">   -278.16740882 </i>
    <i name="e_0_energy">   -278.16740882 </i>
   </energy>
  </scstep>
  <scstep>
   <time name="dav">   39.58   39.70</time>
   <time name="total">   43.18   43.31</time>
   <energy>
    <i name="e_fr_energy">   -278.16812621 </i>
    <i name="e_wo_entrp">   -278.16812621 </i>
    <i name="e_0_energy">   -278.16812621 </i>
   </energy>
  </scstep>
  <scstep>
   <time name="dav">   41.00   41.10</time>
   <time name="total">   44.59   44.70</time>
   <energy>
    <i name="e_fr_energy">   -278.16885654 </i>
    <i name="e_wo_entrp">   -278.16885654 </i>
    <i name="e_0_energy">   -278.16885654 </i>
   </energy>
  </scstep>
  <scstep>
   <time name="dav">   40.09   40.18</time>
   <time name="total">   43.67   43.78</time>
   <energy>
    <i name="e_fr_energy">   -278.16863949 </i>
    <i name="e_wo_entrp">   -278.16863949 </i>
    <i name="e_0_energy">   -278.16863949 </i>
   </energy>
  </scstep>
  <scstep>
   <time name="dav">   43.59   43.70</time>
   <time name="total">   47.19   47.31</time>
   <energy>
    <i name="e_fr_energy">   -278.16936317 </i>
    <i name="e_wo_entrp">   -278.16936317 </i>
    <i name="e_0_energy">   -278.16936317 </i>
   </energy>
  </scstep>
  <scstep>
   <time name="dav">   38.43   38.52</time>
   <time name="total">   41.98   42.09</time>
   <energy>
    <i name="e_fr_energy">   -278.16933173 </i>
    <i name="e_wo_entrp">   -278.16933173 </i>
    <i name="e_0_energy">   -278.16933173 </i>
   </energy>
  </scstep>
  <scstep>
   <time name="dav">   39.20   39.29</time>
   <time name="total">   39.67   39.76</time>
   <energy>
    <i name="alphaZ">     18.80097473 </i>
    <i name="ewald">  60900.70978156 </i>
    <i name="hartreedc"> -64564.94921561 </i>
    <i name="XCdc">    424.53884276 </i>
    <i name="pawpsdc">  12708.81355738 </i>
    <i name="pawaedc"> -12729.78120108 </i>
    <i name="eentropy">      0.00000000 </i>
    <i name="bandstr">  -1598.10059315 </i>
    <i name="atom">   4561.79852166 </i>
    <i name="e_fr_energy">   -278.16933176 </i>
    <i name="e_wo_entrp">   -278.16933176 </i>
    <i name="e_0_energy">   -278.16933176 </i>
   </energy>
  </scstep>
  <structure>
   <crystal>
    <varray name="basis" >
     <v>       9.84672000       0.00000000       0.00000000 </v>
     <v>       4.93000000       8.52848000       0.00000000 </v>
     <v>       0.00000000       0.00000000      50.00000000 </v>
    </varray>
    <i name="volume">   4198.87772928 </i>
    <varray name="rec_basis" >
     <v>       0.10155666      -0.05870616       0.00000000 </v>
     <v>       0.00000000       0.11725419       0.00000000 </v>
     <v>       0.00000000       0.00000000       0.02000000 </v>
    </varray>
   </crystal>
   <varray name="positions" >
    <v>       0.00051788       0.00044240       0.44000000 </v>
    <v>       0.08261287       0.08265508       0.44000000 </v>
    <v>       0.00123391       0.24951738       0.44000000 </v>
    <v>       0.08291691       0.33410075       0.44000000 </v>
    <v>       0.00029781       0.49914275       0.44000000 </v>
    <v>       0.08378260       0.58281626       0.44000000 </v>
    <v>       0.99987699       0.74976891       0.44000000 </v>
    <v>       0.08376431       0.83316279       0.44000000 </v>
    <v>       0.24945290       0.00126362       0.44000000 </v>
    <v>       0.33411657       0.08292950       0.44000000 </v>
    <v>       0.24894138       0.24904430       0.44000000 </v>
    <v>       0.33289354       0.33285143       0.44000000 </v>
    <v>       0.25353828       0.49777145       0.44000000 </v>
    <v>       0.33054941       0.58427699       0.44000000 </v>
    <v>       0.25393386       0.74830403       0.44000000 </v>
    <v>       0.33247181       0.83450735       0.44000000 </v>
    <v>       0.49917141       0.00024332       0.44000000 </v>
    <v>       0.58291526       0.08355137       0.44000000 </v>
    <v>       0.49767332       0.25325874       0.44000000 </v>
    <v>       0.58446034       0.32986108       0.44000000 </v>
    <v>       0.58473974       0.58506030       0.44000000 </v>
    <v>       0.49829708       0.74842358       0.44000000 </v>
    <v>       0.58264570       0.83332975       0.44000000 </v>
    <v>       0.74982116       0.99979671       0.44000000 </v>
    <v>       0.83326258       0.08361840       0.44000000 </v>
    <v>       0.74841264       0.25378043       0.44000000 </v>
    <v>       0.83437203       0.33252139       0.44000000 </v>
    <v>       0.74815356       0.49843493       0.44000000 </v>
    <v>       0.83329452       0.58259828       0.44000000 </v>
    <v>       0.74992765       0.74989841       0.44000000 </v>
    <v>       0.83342870       0.83326336       0.44000000 </v>
   </varray>
  </structure>
  <varray name="forces" >
   <v>      -0.38354114      -0.26949493       0.00000629 </v>
   <v>       0.93466925       0.56900688      -0.00001101 </v>
   <v>      -0.89903419       0.28229591       0.00002087 </v>
   <v>      -0.11347108      -0.68033770       0.00003035 </v>
   <v>       0.10676620       0.17424964      -0.00000213 </v>
   <v>       0.12327067       0.35964173      -0.00000033 </v>
   <v>       0.51245082      -0.13495595       0.00002333 </v>
   <v>      -0.19361166      -0.42919540      -0.00000812 </v>
   <v>      -0.09350236      -0.87617204      -0.00000947 </v>
   <v>      -0.70306055       0.30858998       0.00000247 </v>
   <v>       1.16373778       0.53672165       0.00000219 </v>
   <v>      -1.13847815      -0.57957477      -0.00001927 </v>
   <v>       0.24129859       0.26960960      -0.00005003 </v>
   <v>      -0.06902081       0.18749211       0.00027763 </v>
   <v>      -0.29488183      -0.38460681      -0.00011373 </v>
   <v>       0.23315178       0.78951692       0.00009256 </v>
   <v>       0.20718963      -0.04121984      -0.00000054 </v>
   <v>       0.27314605      -0.00907136       0.00002218 </v>
   <v>       0.68284321      -0.05932209      -0.00005507 </v>
   <v>      -0.08037468      -0.19912676      -0.00016696 </v>
   <v>       0.12424040       0.31301261       0.00021586 </v>
   <v>       0.04233035      -0.35171028      -0.00015356 </v>
   <v>       0.32381694      -0.37405233      -0.00002579 </v>
   <v>       0.16836065       0.40931312       0.00000296 </v>
   <v>      -0.45132071       0.09752868       0.00000405 </v>
   <v>      -0.61141794      -0.10786107      -0.00007241 </v>
   <v>       0.79075623      -0.11699917      -0.00004373 </v>
   <v>      -0.25669515       0.00634438      -0.00002616 </v>
   <v>      -0.19142403       0.54022301      -0.00000282 </v>
   <v>      -0.24845756      -0.17437231       0.00001889 </v>
   <v>      -0.19973671      -0.05547340       0.00004148 </v>
  </varray>
  <varray name="stress" >
   <v>      -1.88761030       0.04523415      -0.00002116 </v>
   <v>       0.04523417      -1.95220729       0.00008289 </v>
   <v>      -0.00002116       0.00008289      -0.15015260 </v>
  </varray>
  <energy>
   <i name="e_fr_energy">   -280.68540719 </i>
   <i name="e_wo_entrp">   -280.68540719 </i>
   <i name="e_0_energy">      0.00000000 </i>
  </energy>
  <time name="totalsc"> 1291.25 1297.78</time>
 </calculation>
 <calculation>
  <scstep>
   <time name="dav">   39.51   39.72</time>
   <time name="total">   43.08   43.31</time>
   <energy>
    <i name="alphaZ">     19.11060413 </i>
    <i name="ewald">  61894.27382352 </i>
    <i name="hartreedc"> -65548.46807411 </i>
    <i name="XCdc">    426.86818962 </i>
    <i name="pawpsdc">  12708.72624733 </i>
    <i name="pawaedc"> -12729.69379316 </i>
    <i name="eentropy">      0.00000000 </i>
    <i name="bandstr">  -1609.90414110 </i>
    <i name="atom">   4561.79852166 </i>
    <i name="e_fr_energy">   -277.28862211 </i>
    <i name="e_wo_entrp">   -277.28862211 </i>
    <i name="e_0_energy">   -277.28862211 </i>
   </energy>
  </scstep>
  <scstep>
   <time name="dav">   44.96   45.07</time>
   <time name="total">   48.50   48.62</time>
   <energy>
    <i name="e_fr_energy">   -277.33585437 </i>
    <i name="e_wo_entrp">   -277.33585437 </i>
    <i name="e_0_energy">   -277.33585437 </i>
   </energy>
  </scstep>
  <scstep>
   <time name="dav">   42.67   42.78</time>
   <time name="total">   46.54   46.65</time>
   <energy>
    <i name="e_fr_energy">   -277.22408174 </i>
    <i name="e_wo_entrp">   -277.22408174 </i>
    <i name="e_0_energy">   -277.22408174 </i>
   </energy>
  </scstep>
  <scstep>
   <time name="dav">   44.71   44.82</time>
   <time name="total">   48.32   48.44</time>
   <energy>
    <i name="e_fr_energy">   -277.20730527 </i>
    <i name="e_wo_entrp">   -277.20730527 </i>
    <i name="e_0_energy">   -277.20730527 </i>
   </energy>
  </scstep>
  <scstep>
   <time name="dav">   41.80   41.90</time>
   <time name="total">   45.54   45.66</time>
   <energy>
    <i name="e_fr_energy">   -277.18771451 </i>
    <i name="e_wo_entrp">   -277.18771451 </i>
    <i name="e_0_energy">   -277.18771451 </i>
   </energy>
  </scstep>
  <scstep>
   <time name="dav">   43.53   43.64</time>
   <time name="total">   47.16   47.28</time>
   <energy>
    <i name="e_fr_energy">   -277.18695844 </i>
    <i name="e_wo_entrp">   -277.18695844 </i>
    <i name="e_0_energy">   -277.18695844 </i>
   </energy>
  </scstep>
  <scstep>
   <time name="dav">   41.86   41.98</time>
   <time name="total">   45.83   45.97</time>
   <energy>
    <i name="e_fr_energy">   -277.18155876 </i>
    <i name="e_wo_entrp">   -277.18155876 </i>
    <i name="e_0_energy">   -277.18155876 </i>
   </energy>
  </scstep>
  <scstep>
   <time name="dav">   42.57   42.68</time>
   <time name="total">   46.17   46.29</time>
   <energy>
    <i name="e_fr_energy">   -277.18003951 </i>
    <i name="e_wo_entrp">   -277.18003951 </i>
    <i name="e_0_energy">   -277.18003951 </i>
   </energy>
  </scstep>
  <scstep>
   <time name="dav">   40.07   40.17</time>
   <time name="total">   44.04   44.15</time>
   <energy>
    <i name="e_fr_energy">   -277.17998407 </i>
    <i name="e_wo_entrp">   -277.17998407 </i>
    <i name="e_0_energy">   -277.17998407 </i>
   </energy>
  </scstep>
  <scstep>
   <time name="dav">   41.27   41.37</time>
   <time name="total">   44.83   44.94</time>
   <energy>
    <i name="e_fr_energy">   -277.18107046 </i>
    <i name="e_wo_entrp">   -277.18107046 </i>
    <i name="e_0_energy">   -277.18107046 </i>
   </energy>
  </scstep>
  <scstep>
   <time name="dav">   40.75   40.85</time>
   <time name="total">   44.50   44.62</time>
   <energy>
    <i name="e_fr_energy">   -277.18043439 </i>
    <i name="e_wo_entrp">   -277.18043439 </i>
    <i name="e_0_energy">   -277.18043439 </i>
   </energy>
  </scstep>
  <scstep>
   <time name="dav">   40.05   40.15</time>
   <time name="total">   43.69   43.81</time>
   <energy>
    <i name="e_fr_energy">   -277.17985338 </i>
    <i name="e_wo_entrp">   -277.17985338 </i>
    <i name="e_0_energy">   -277.17985338 </i>
   </energy>
  </scstep>
  <scstep>
   <time name="dav">   40.36   40.46</time>
   <time name="total">   43.97   44.09</time>
   <energy>
    <i name="e_fr_energy">   -277.18043303 </i>
    <i name="e_wo_entrp">   -277.18043303 </i>
    <i name="e_0_energy">   -277.18043303 </i>
   </energy>
  </scstep>
  <scstep>
   <time name="dav">   41.78   41.89</time>
   <time name="total">   45.33   45.44</time>
   <energy>
    <i name="e_fr_energy">   -277.18115612 </i>
    <i name="e_wo_entrp">   -277.18115612 </i>
    <i name="e_0_energy">   -277.18115612 </i>
   </energy>
  </scstep>
  <scstep>
   <time name="dav">   42.73   42.84</time>
   <time name="total">   45.97   46.08</time>
   <energy>
    <i name="e_fr_energy">   -277.18124754 </i>
    <i name="e_wo_entrp">   -277.18124754 </i>
    <i name="e_0_energy">   -277.18124754 </i>
   </energy>
  </scstep>
  <scstep>
   <time name="dav">   29.28   29.35</time>
   <time name="total">   32.62   32.71</time>
   <energy>
    <i name="e_fr_energy">   -277.18119087 </i>
    <i name="e_wo_entrp">   -277.18119087 </i>
    <i name="e_0_energy">   -277.18119087 </i>
   </energy>
  </scstep>
  <scstep>
   <time name="dav">   37.39   37.48</time>
   <time name="total">   40.73   40.83</time>
   <energy>
    <i name="e_fr_energy">   -277.18135849 </i>
    <i name="e_wo_entrp">   -277.18135849 </i>
    <i name="e_0_energy">   -277.18135849 </i>
   </energy>
  </scstep>
  <scstep>
   <time name="dav">   42.45   42.56</time>
   <time name="total">   44.93   45.15</time>
   <energy>
    <i name="e_fr_energy">   -277.18208112 </i>
    <i name="e_wo_entrp">   -277.18208112 </i>
    <i name="e_0_energy">   -277.18208112 </i>
   </energy>
  </scstep>
  <scstep>
   <time name="dav">   30.23   30.33</time>
   <time name="total">   33.00   33.13</time>
   <energy>
    <i name="e_fr_energy">   -277.18164581 </i>
    <i name="e_wo_entrp">   -277.18164581 </i>
    <i name="e_0_energy">   -277.18164581 </i>
   </energy>
  </scstep>
  <scstep>
   <time name="dav">   29.40   29.75</time>
   <time name="total">   32.26   32.64</time>
   <energy>
    <i name="e_fr_energy">   -277.18144364 </i>
    <i name="e_wo_entrp">   -277.18144364 </i>
    <i name="e_0_energy">   -277.18144364 </i>
   </energy>
  </scstep>
  <scstep>
   <time name="dav">   29.59   29.82</time>
   <time name="total">   32.39   32.64</time>
   <energy>
    <i name="e_fr_energy">   -277.18161476 </i>
    <i name="e_wo_entrp">   -277.18161476 </i>
    <i name="e_0_energy">   -277.18161476 </i>
   </energy>
  </scstep>
  <scstep>
   <time name="dav">   30.19   30.43</time>
   <time name="total">   33.46   33.74</time>
   <energy>
    <i name="e_fr_energy">   -277.18158749 </i>
    <i name="e_wo_entrp">   -277.18158749 </i>
    <i name="e_0_energy">   -277.18158749 </i>
   </energy>
  </scstep>
  <scstep>
   <time name="dav">   39.16   39.26</time>
   <time name="total">   42.72   42.84</time>
   <energy>
    <i name="e_fr_energy">   -277.18140468 </i>
    <i name="e_wo_entrp">   -277.18140468 </i>
    <i name="e_0_energy">   -277.18140468 </i>
   </energy>
  </scstep>
  <scstep>
   <time name="dav">   38.97   39.09</time>
   <time name="total">   42.57   42.70</time>
   <energy>
    <i name="e_fr_energy">   -277.18133395 </i>
    <i name="e_wo_entrp">   -277.18133395 </i>
    <i name="e_0_energy">   -277.18133395 </i>
   </energy>
  </scstep>
  <scstep>
   <time name="dav">   39.16   39.25</time>
   <time name="total">   42.73   42.83</time>
   <energy>
    <i name="e_fr_energy">   -277.18206545 </i>
    <i name="e_wo_entrp">   -277.18206545 </i>
    <i name="e_0_energy">   -277.18206545 </i>
   </energy>
  </scstep>
  <scstep>
   <time name="dav">   39.72   39.82</time>
   <time name="total">   43.25   43.36</time>
   <energy>
    <i name="e_fr_energy">   -277.18188553 </i>
    <i name="e_wo_entrp">   -277.18188553 </i>
    <i name="e_0_energy">   -277.18188553 </i>
   </energy>
  </scstep>
  <scstep>
   <time name="dav">   38.78   38.94</time>
   <time name="total">   42.33   42.52</time>
   <energy>
    <i name="e_fr_energy">   -277.18157776 </i>
    <i name="e_wo_entrp">   -277.18157776 </i>
    <i name="e_0_energy">   -277.18157776 </i>
   </energy>
  </scstep>
  <scstep>
   <time name="dav">   39.59   39.69</time>
   <time name="total">   43.20   43.32</time>
   <energy>
    <i name="e_fr_energy">   -277.18193266 </i>
    <i name="e_wo_entrp">   -277.18193266 </i>
    <i name="e_0_energy">   -277.18193266 </i>
   </energy>
  </scstep>
  <scstep>
   <time name="dav">   39.11   39.21</time>
   <time name="total">   42.72   42.82</time>
   <energy>
    <i name="e_fr_energy">   -277.18209099 </i>
    <i name="e_wo_entrp">   -277.18209099 </i>
    <i name="e_0_energy">   -277.18209099 </i>
   </energy>
  </scstep>
  <scstep>
   <time name="dav">   38.58   38.68</time>
   <time name="total">   42.16   42.27</time>
   <energy>
    <i name="e_fr_energy">   -277.18198263 </i>
    <i name="e_wo_entrp">   -277.18198263 </i>
    <i name="e_0_energy">   -277.18198263 </i>
   </energy>
  </scstep>
  <scstep>
   <time name="dav">   39.41   39.57</time>
   <time name="total">   43.03   43.20</time>
   <energy>
    <i name="e_fr_energy">   -277.18238518 </i>
    <i name="e_wo_entrp">   -277.18238518 </i>
    <i name="e_0_energy">   -277.18238518 </i>
   </energy>
  </scstep>
  <scstep>
   <time name="dav">   39.58   39.79</time>
   <time name="total">   43.16   43.40</time>
   <energy>
    <i name="e_fr_energy">   -277.18215174 </i>
    <i name="e_wo_entrp">   -277.18215174 </i>
    <i name="e_0_energy">   -277.18215174 </i>
   </energy>
  </scstep>
  <scstep>
   <time name="dav">   32.17   32.41</time>
   <time name="total">   35.67   36.00</time>
   <energy>
    <i name="e_fr_energy">   -277.18207424 </i>
    <i name="e_wo_entrp">   -277.18207424 </i>
    <i name="e_0_energy">   -277.18207424 </i>
   </energy>
  </scstep>
  <scstep>
   <time name="dav">   40.58   40.88</time>
   <time name="total">   44.21   44.53</time>
   <energy>
    <i name="e_fr_energy">   -277.18188695 </i>
    <i name="e_wo_entrp">   -277.18188695 </i>
    <i name="e_0_energy">   -277.18188695 </i>
   </energy>
  </scstep>
  <scstep>
   <time name="dav">   36.54   36.69</time>
   <time name="total">   40.12   40.29</time>
   <energy>
    <i name="e_fr_energy">   -277.18212887 </i>
    <i name="e_wo_entrp">   -277.18212887 </i>
    <i name="e_0_energy">   -277.18212887 </i>
   </energy>
  </scstep>
  <scstep>
   <time name="dav">   35.65   35.75</time>
   <time name="total">   39.23   39.34</time>
   <energy>
    <i name="e_fr_energy">   -277.18214361 </i>
    <i name="e_wo_entrp">   -277.18214361 </i>
    <i name="e_0_energy">   -277.18214361 </i>
   </energy>
  </scstep>
  <scstep>
   <time name="dav">   38.95   39.06</time>
   <time name="total">   42.58   42.71</time>
   <energy>
    <i name="e_fr_energy">   -277.18191846 </i>
    <i name="e_wo_entrp">   -277.18191846 </i>
    <i name="e_0_energy">   -277.18191846 </i>
   </energy>
  </scstep>
  <scstep>
   <time name="dav">   34.20   34.29</time>
   <time name="total">   37.70   37.80</time>
   <energy>
    <i name="e_fr_energy">   -277.18216432 </i>
    <i name="e_wo_entrp">   -277.18216432 </i>
    <i name="e_0_energy">   -277.18216432 </i>
   </energy>
  </scstep>
  <scstep>
   <time name="dav">   34.22   34.34</time>
   <time name="total">   37.81   37.94</time>
   <energy>
    <i name="e_fr_energy">   -277.18221911 </i>
    <i name="e_wo_entrp">   -277.18221911 </i>
    <i name="e_0_energy">   -277.18221911 </i>
   </energy>
  </scstep>
  <scstep>
   <time name="dav">   40.17   40.28</time>
   <time name="total">   43.79   43.92</time>
   <energy>
    <i name="e_fr_energy">   -277.18186962 </i>
    <i name="e_wo_entrp">   -277.18186962 </i>
    <i name="e_0_energy">   -277.18186962 </i>
   </energy>
  </scstep>
  <scstep>
   <time name="dav">   38.07   38.16</time>
   <time name="total">   41.67   41.78</time>
   <energy>
    <i name="e_fr_energy">   -277.18219278 </i>
    <i name="e_wo_entrp">   -277.18219278 </i>
    <i name="e_0_energy">   -277.18219278 </i>
   </energy>
  </scstep>
  <scstep>
   <time name="dav">   31.02   31.14</time>
   <time name="total">   34.63   34.78</time>
   <energy>
    <i name="e_fr_energy">   -277.18223881 </i>
    <i name="e_wo_entrp">   -277.18223881 </i>
    <i name="e_0_energy">   -277.18223881 </i>
   </energy>
  </scstep>
  <scstep>
   <time name="dav">   30.09   30.27</time>
   <time name="total">   34.02   34.26</time>
   <energy>
    <i name="e_fr_energy">   -277.18222870 </i>
    <i name="e_wo_entrp">   -277.18222870 </i>
    <i name="e_0_energy">   -277.18222870 </i>
   </energy>
  </scstep>
  <scstep>
   <time name="dav">   28.66   28.76</time>
   <time name="total">   32.33   32.44</time>
   <energy>
    <i name="e_fr_energy">   -277.18223740 </i>
    <i name="e_wo_entrp">   -277.18223740 </i>
    <i name="e_0_energy">   -277.18223740 </i>
   </energy>
  </scstep>
  <scstep>
   <time name="dav">   39.14   39.26</time>
   <time name="total">   42.73   42.86</time>
   <energy>
    <i name="e_fr_energy">   -277.18190326 </i>
    <i name="e_wo_entrp">   -277.18190326 </i>
    <i name="e_0_energy">   -277.18190326 </i>
   </energy>
  </scstep>
  <scstep>
   <time name="dav">   37.15   37.24</time>
   <time name="total">   40.74   40.85</time>
   <energy>
    <i name="e_fr_energy">   -277.18218527 </i>
    <i name="e_wo_entrp">   -277.18218527 </i>
    <i name="e_0_energy">   -277.18218527 </i>
   </energy>
  </scstep>
  <scstep>
   <time name="dav">   32.06   32.17</time>
   <time name="total">   35.70   35.82</time>
   <energy>
    <i name="e_fr_energy">   -277.18222865 </i>
    <i name="e_wo_entrp">   -277.18222865 </i>
    <i name="e_0_energy">   -277.18222865 </i>
   </energy>
  </scstep>
  <scstep>
   <time name="dav">   29.94   30.18</time>
   <time name="total">   33.59   33.87</time>
   <energy>
    <i name="e_fr_energy">   -277.18223205 </i>
    <i name="e_wo_entrp">   -277.18223205 </i>
    <i name="e_0_energy">   -277.18223205 </i>
   </energy>
  </scstep>
  <scstep>
   <time name="dav">   38.52   38.94</time>
   <time name="total">   42.09   42.56</time>
   <energy>
    <i name="e_fr_energy">   -277.18187488 </i>
    <i name="e_wo_entrp">   -277.18187488 </i>
    <i name="e_0_energy">   -277.18187488 </i>
   </energy>
  </scstep>
  <scstep>
   <time name="dav">   35.93   36.17</time>
   <time name="total">   39.53   39.78</time>
   <energy>
    <i name="e_fr_energy">   -277.18213129 </i>
    <i name="e_wo_entrp">   -277.18213129 </i>
    <i name="e_0_energy">   -277.18213129 </i>
   </energy>
  </scstep>
  <scstep>
   <time name="dav">   32.18   32.27</time>
   <time name="total">   35.79   35.89</time>
   <energy>
    <i name="e_fr_energy">   -277.18219600 </i>
    <i name="e_wo_entrp">   -277.18219600 </i>
    <i name="e_0_energy">   -277.18219600 </i>
   </energy>
  </scstep>
  <scstep>
   <time name="dav">   29.16   29.23</time>
   <time name="total">   32.78   32.87</time>
   <energy>
    <i name="e_fr_energy">   -277.18220565 </i>
    <i name="e_wo_entrp">   -277.18220565 </i>
    <i name="e_0_energy">   -277.18220565 </i>
   </energy>
  </scstep>
  <scstep>
   <time name="dav">   29.02   29.09</time>
   <time name="total">   32.65   32.74</time>
   <energy>
    <i name="e_fr_energy">   -277.18222617 </i>
    <i name="e_wo_entrp">   -277.18222617 </i>
    <i name="e_0_energy">   -277.18222617 </i>
   </energy>
  </scstep>
  <scstep>
   <time name="dav">   38.49   38.59</time>
   <time name="total">   42.46   42.57</time>
   <energy>
    <i name="e_fr_energy">   -277.18181388 </i>
    <i name="e_wo_entrp">   -277.18181388 </i>
    <i name="e_0_energy">   -277.18181388 </i>
   </energy>
  </scstep>
  <scstep>
   <time name="dav">   36.08   36.17</time>
   <time name="total">   39.73   39.83</time>
   <energy>
    <i name="e_fr_energy">   -277.18203242 </i>
    <i name="e_wo_entrp">   -277.18203242 </i>
    <i name="e_0_energy">   -277.18203242 </i>
   </energy>
  </scstep>
  <scstep>
   <time name="dav">   37.06   37.18</time>
   <time name="total">   40.67   40.81</time>
   <energy>
    <i name="e_fr_energy">   -277.18217762 </i>
    <i name="e_wo_entrp">   -277.18217762 </i>
    <i name="e_0_energy">   -277.18217762 </i>
   </energy>
  </scstep>
  <scstep>
   <time name="dav">   28.42   28.52</time>
   <time name="total">   32.04   32.16</time>
   <energy>
    <i name="e_fr_energy">   -277.18216799 </i>
    <i name="e_wo_entrp">   -277.18216799 </i>
    <i name="e_0_energy">   -277.18216799 </i>
   </energy>
  </scstep>
  <scstep>
   <time name="dav">   29.40   29.47</time>
   <time name="total">   33.08   33.16</time>
   <energy>
    <i name="e_fr_energy">   -277.18220468 </i>
    <i name="e_wo_entrp">   -277.18220468 </i>
    <i name="e_0_energy">   -277.18220468 </i>
   </energy>
  </scstep>
  <scstep>
   <time name="dav">   28.21   28.28</time>
   <time name="total">   31.83   31.92</time>
   <energy>
    <i name="e_fr_energy">   -277.18223916 </i>
    <i name="e_wo_entrp">   -277.18223916 </i>
    <i name="e_0_energy">   -277.18223916 </i>
   </energy>
  </scstep>
  <scstep>
   <time name="dav">   29.26   29.35</time>
   <time name="total">   32.86   32.96</time>
   <energy>
    <i name="e_fr_energy">   -277.18224647 </i>
    <i name="e_wo_entrp">   -277.18224647 </i>
    <i name="e_0_energy">   -277.18224647 </i>
   </energy>
  </scstep>
  <scstep>
   <time name="dav">   29.74   29.81</time>
   <time name="total">   30.20   30.28</time>
   <energy>
    <i name="alphaZ">     19.11060413 </i>
    <i name="ewald">  61894.27382352 </i>
    <i name="hartreedc"> -65558.23243583 </i>
    <i name="XCdc">    426.92399359 </i>
    <i name="pawpsdc">  13251.32840789 </i>
    <i name="pawaedc"> -13272.51437341 </i>
    <i name="eentropy">      0.00000000 </i>
    <i name="bandstr">  -1599.87078854 </i>
    <i name="atom">   4561.79852166 </i>
    <i name="e_fr_energy">   -277.18224700 </i>
    <i name="e_wo_entrp">   -277.18224700 </i>
    <i name="e_0_energy">   -277.18224700 </i>
   </energy>
  </scstep>
  <structure>
   <crystal>
    <varray name="basis" >
     <v>       9.77091531       0.00181656      -0.00000085 </v>
     <v>       4.89361991       8.46148639       0.00000246 </v>
     <v>      -0.00000432       0.00001690      49.96938072 </v>
    </varray>
    <i name="volume">   4130.84764521 </i>
    <varray name="rec_basis" >
     <v>       0.10235556      -0.05919636       0.00000003 </v>
     <v>      -0.00002197       0.11819525      -0.00000004 </v>
     <v>       0.00000000      -0.00000001       0.02001226 </v>
    </varray>
   </crystal>
   <varray name="positions" >
    <v>      -0.00059798      -0.00108204       0.44000001 </v>
    <v>       0.08558065       0.08587375       0.43999999 </v>
    <v>      -0.00397029       0.25111423       0.44000002 </v>
    <v>       0.08428778       0.33025231       0.44000003 </v>
    <v>       0.00032740       0.50012842       0.44000000 </v>
    <v>       0.08336800       0.58485063       0.44000000 </v>
    <v>       1.00276989       0.74900551       0.44000002 </v>
    <v>       0.08403128       0.83073498       0.43999999 </v>
    <v>       0.25147624      -0.00369259       0.43999999 </v>
    <v>       0.32979805       0.08467509       0.44000000 </v>
    <v>       0.25312288       0.25208035       0.44000000 </v>
    <v>       0.32895716       0.32957298       0.43999998 </v>
    <v>       0.25395692       0.49929654       0.43999995 </v>
    <v>       0.32968025       0.58533757       0.44000027 </v>
    <v>       0.25357838       0.74612844       0.43999989 </v>
    <v>       0.33137809       0.83897338       0.44000009 </v>
    <v>       0.50030325       0.00001015       0.44000000 </v>
    <v>       0.58427919       0.08350006       0.44000002 </v>
    <v>       0.50118683       0.25292318       0.43999995 </v>
    <v>       0.58463051       0.32873469       0.43999984 </v>
    <v>       0.58446195       0.58683091       0.44000021 </v>
    <v>       0.49950057       0.74643408       0.43999985 </v>
    <v>       0.58529157       0.83121386       0.43999998 </v>
    <v>       0.74948679       1.00211205       0.44000000 </v>
    <v>       0.83077518       0.08417008       0.44000000 </v>
    <v>       0.74572256       0.25317029       0.43999993 </v>
    <v>       0.83857759       0.33185956       0.43999996 </v>
    <v>       0.74687795       0.49847082       0.43999997 </v>
    <v>       0.83082668       0.58565414       0.44000000 </v>
    <v>       0.74920421       0.74891205       0.44000002 </v>
    <v>       0.83260723       0.83294956       0.44000004 </v>
   </varray>
  </structure>
  <varray name="forces" >
   <v>       1.58988120       1.03719995      -0.00019961 </v>
   <v>      -3.23145437      -2.01273794       0.00026821 </v>
   <v>       3.79541208      -1.30308750       0.00028881 </v>
   <v>       0.38460282       2.27865146      -0.00005660 </v>
   <v>      -0.49593961      -0.96301465       0.00017979 </v>
   <v>       0.35697351      -0.90760720      -0.00029056 </v>
   <v>      -1.98026444       0.48448696       0.00015279 </v>
   <v>       0.82343227       0.85778453      -0.00043888 </v>
   <v>       0.45227647       3.91647617       0.00021770 </v>
   <v>       2.42249224      -1.09340126      -0.00018751 </v>
   <v>      -5.62198025      -2.88786008      -0.00018296 </v>
   <v>       6.06515951       3.09838563       0.00072345 </v>
   <v>      -0.84428988      -1.11597181      -0.00059331 </v>
   <v>       0.65843812      -0.81772047       0.00229280 </v>
   <v>       1.12374311       1.43809328      -0.00042528 </v>
   <v>      -0.76472374      -4.24176933      -0.00009702 </v>
   <v>      -1.20240216       0.22075397      -0.00011852 </v>
   <v>      -0.23080372       0.31205119      -0.00056230 </v>
   <v>      -2.56210899      -0.09751626      -0.00133880 </v>
   <v>       0.23155386       0.98217322       0.00207441 </v>
   <v>      -0.53389593      -1.00671446      -0.00037994 </v>
   <v>      -0.11827890       1.57105906      -0.00013561 </v>
   <v>      -0.95821020       0.79995349      -0.00009361 </v>
   <v>      -0.76035722      -1.61347468       0.00007257 </v>
   <v>       1.07966207       0.09287420      -0.00003435 </v>
   <v>       1.96433304       0.40369006       0.00011890 </v>
   <v>      -4.30383645       1.14904171      -0.00057499 </v>
   <v>       0.73049034      -0.00908565      -0.00091770 </v>
   <v>       0.13445876      -1.60939399      -0.00017955 </v>
   <v>       0.92091058       0.75688277       0.00004937 </v>
   <v>       0.87472588       0.27979762       0.00036829 </v>
  </varray>
  <varray name="stress" >
   <v>       5.23185457       0.33946014      -0.00030579 </v>
   <v>       0.33946013       6.26536688      -0.00023492 </v>
   <v>      -0.00030580      -0.00023492       0.01161452 </v>
  </varray>
  <energy>
   <i name="e_fr_energy">   -279.73694833 </i>
   <i name="e_wo_entrp">   -279.73694833 </i>
   <i name="e_0_energy">      0.00000000 </i>
  </energy>
  <time name="totalsc"> 2493.50 2502.78</time>
 </calculation>
 <calculation>
  <scstep>
   <time name="dav">   38.74   38.84</time>
   <time name="total">   42.30   42.41</time>
   <energy>
    <i name="alphaZ">     18.93807344 </i>
    <i name="ewald">  61292.16853083 </i>
    <i name="hartreedc"> -64965.18441002 </i>
    <i name="XCdc">    425.54929430 </i>
    <i name="pawpsdc">  13251.32979745 </i>
    <i name="pawaedc"> -13272.51576272 </i>
    <i name="eentropy">      0.00000000 </i>
    <i name="bandstr">  -1590.30588578 </i>
    <i name="atom">   4561.79852166 </i>
    <i name="e_fr_energy">   -278.22184083 </i>
    <i name="e_wo_entrp">   -278.22184083 </i>
    <i name="e_0_energy">   -278.22184083 </i>
   </energy>
  </scstep>
  <scstep>
   <time name="dav">   45.68   45.79</time>
   <time name="total">   49.24   49.37</time>
   <energy>
    <i name="e_fr_energy">   -278.28842830 </i>
    <i name="e_wo_entrp">   -278.28842830 </i>
    <i name="e_0_energy">   -278.28842830 </i>
   </energy>
  </scstep>
  <scstep>
   <time name="dav">   45.36   45.50</time>
   <time name="total">   48.92   49.07</time>
   <energy>
    <i name="e_fr_energy">   -278.20510965 </i>
    <i name="e_wo_entrp">   -278.20510965 </i>
    <i name="e_0_energy">   -278.20510965 </i>
   </energy>
  </scstep>
  <scstep>
   <time name="dav">   46.72   46.84</time>
   <time name="total">   50.29   50.42</time>
   <energy>
    <i name="e_fr_energy">   -278.21370574 </i>
    <i name="e_wo_entrp">   -278.21370574 </i>
    <i name="e_0_energy">   -278.21370574 </i>
   </energy>
  </scstep>
  <scstep>
   <time name="dav">   42.27   42.38</time>
   <time name="total">   46.07   46.20</time>
   <energy>
    <i name="e_fr_energy">   -278.19310992 </i>
    <i name="e_wo_entrp">   -278.19310992 </i>
    <i name="e_0_energy">   -278.19310992 </i>
   </energy>
  </scstep>
  <scstep>
   <time name="dav">   39.80   40.02</time>
   <time name="total">   43.41   43.66</time>
   <energy>
    <i name="e_fr_energy">   -278.19765937 </i>
    <i name="e_wo_entrp">   -278.19765937 </i>
    <i name="e_0_energy">   -278.19765937 </i>
   </energy>
  </scstep>
  <scstep>
   <time name="dav">   41.94   42.14</time>
   <time name="total">   45.87   46.08</time>
   <energy>
    <i name="e_fr_energy">   -278.18881639 </i>
    <i name="e_wo_entrp">   -278.18881639 </i>
    <i name="e_0_energy">   -278.18881639 </i>
   </energy>
  </scstep>
  <scstep>
   <time name="dav">   40.40   40.50</time>
   <time name="total">   43.97   44.09</time>
   <energy>
    <i name="e_fr_energy">   -278.19005254 </i>
    <i name="e_wo_entrp">   -278.19005254 </i>
    <i name="e_0_energy">   -278.19005254 </i>
   </energy>
  </scstep>
  <scstep>
   <time name="dav">   43.28   43.39</time>
   <time name="total">   46.53   46.64</time>
   <energy>
    <i name="e_fr_energy">   -278.19094782 </i>
    <i name="e_wo_entrp">   -278.19094782 </i>
    <i name="e_0_energy">   -278.19094782 </i>
   </energy>
  </scstep>
  <scstep>
   <time name="dav">   40.18   40.64</time>
   <time name="total">   43.49   43.96</time>
   <energy>
    <i name="e_fr_energy">   -278.18930033 </i>
    <i name="e_wo_entrp">   -278.18930033 </i>
    <i name="e_0_energy">   -278.18930033 </i>
   </energy>
  </scstep>
  <scstep>
   <time name="dav">   40.80   40.90</time>
   <time name="total">   44.12   44.23</time>
   <energy>
    <i name="e_fr_energy">   -278.18801236 </i>
    <i name="e_wo_entrp">   -278.18801236 </i>
    <i name="e_0_energy">   -278.18801236 </i>
   </energy>
  </scstep>
  <scstep>
   <time name="dav">   38.26   38.40</time>
   <time name="total">   40.82   40.98</time>
   <energy>
    <i name="e_fr_energy">   -278.18918144 </i>
    <i name="e_wo_entrp">   -278.18918144 </i>
    <i name="e_0_energy">   -278.18918144 </i>
   </energy>
  </scstep>
  <scstep>
   <time name="dav">   30.21   30.29</time>
   <time name="total">   32.97   33.05</time>
   <energy>
    <i name="e_fr_energy">   -278.18958283 </i>
    <i name="e_wo_entrp">   -278.18958283 </i>
    <i name="e_0_energy">   -278.18958283 </i>
   </energy>
  </scstep>
  <scstep>
   <time name="dav">   30.37   30.45</time>
   <time name="total">   33.16   33.25</time>
   <energy>
    <i name="e_fr_energy">   -278.18922267 </i>
    <i name="e_wo_entrp">   -278.18922267 </i>
    <i name="e_0_energy">   -278.18922267 </i>
   </energy>
  </scstep>
  <scstep>
   <time name="dav">   30.55   30.63</time>
   <time name="total">   33.35   33.44</time>
   <energy>
    <i name="e_fr_energy">   -278.18963843 </i>
    <i name="e_wo_entrp">   -278.18963843 </i>
    <i name="e_0_energy">   -278.18963843 </i>
   </energy>
  </scstep>
  <scstep>
   <time name="dav">   36.18   36.26</time>
   <time name="total">   39.68   39.78</time>
   <energy>
    <i name="e_fr_energy">   -278.18968661 </i>
    <i name="e_wo_entrp">   -278.18968661 </i>
    <i name="e_0_energy">   -278.18968661 </i>
   </energy>
  </scstep>
  <scstep>
   <time name="dav">   37.42   37.51</time>
   <time name="total">   41.03   41.13</time>
   <energy>
    <i name="e_fr_energy">   -278.18990435 </i>
    <i name="e_wo_entrp">   -278.18990435 </i>
    <i name="e_0_energy">   -278.18990435 </i>
   </energy>
  </scstep>
  <scstep>
   <time name="dav">   31.59   31.67</time>
   <time name="total">   35.18   35.27</time>
   <energy>
    <i name="e_fr_energy">   -278.18996664 </i>
    <i name="e_wo_entrp">   -278.18996664 </i>
    <i name="e_0_energy">   -278.18996664 </i>
   </energy>
  </scstep>
  <scstep>
   <time name="dav">   35.60   35.70</time>
   <time name="total">   39.21   39.33</time>
   <energy>
    <i name="e_fr_energy">   -278.18995726 </i>
    <i name="e_wo_entrp">   -278.18995726 </i>
    <i name="e_0_energy">   -278.18995726 </i>
   </energy>
  </scstep>
  <scstep>
   <time name="dav">   33.80   33.88</time>
   <time name="total">   37.37   37.46</time>
   <energy>
    <i name="e_fr_energy">   -278.19017791 </i>
    <i name="e_wo_entrp">   -278.19017791 </i>
    <i name="e_0_energy">   -278.19017791 </i>
   </energy>
  </scstep>
  <scstep>
   <time name="dav">   35.04   35.12</time>
   <time name="total">   38.53   38.63</time>
   <energy>
    <i name="e_fr_energy">   -278.19013355 </i>
    <i name="e_wo_entrp">   -278.19013355 </i>
    <i name="e_0_energy">   -278.19013355 </i>
   </energy>
  </scstep>
  <scstep>
   <time name="dav">   32.71   32.78</time>
   <time name="total">   36.29   36.39</time>
   <energy>
    <i name="e_fr_energy">   -278.19038394 </i>
    <i name="e_wo_entrp">   -278.19038394 </i>
    <i name="e_0_energy">   -278.19038394 </i>
   </energy>
  </scstep>
  <scstep>
   <time name="dav">   39.19   39.32</time>
   <time name="total">   42.79   42.93</time>
   <energy>
    <i name="e_fr_energy">   -278.19082677 </i>
    <i name="e_wo_entrp">   -278.19082677 </i>
    <i name="e_0_energy">   -278.19082677 </i>
   </energy>
  </scstep>
  <scstep>
   <time name="dav">   40.15   40.25</time>
   <time name="total">   43.73   43.84</time>
   <energy>
    <i name="e_fr_energy">   -278.19096112 </i>
    <i name="e_wo_entrp">   -278.19096112 </i>
    <i name="e_0_energy">   -278.19096112 </i>
   </energy>
  </scstep>
  <scstep>
   <time name="dav">   33.83   33.91</time>
   <time name="total">   37.43   37.53</time>
   <energy>
    <i name="e_fr_energy">   -278.19123292 </i>
    <i name="e_wo_entrp">   -278.19123292 </i>
    <i name="e_0_energy">   -278.19123292 </i>
   </energy>
  </scstep>
  <scstep>
   <time name="dav">   35.63   35.72</time>
   <time name="total">   39.24   39.34</time>
   <energy>
    <i name="e_fr_energy">   -278.19131178 </i>
    <i name="e_wo_entrp">   -278.19131178 </i>
    <i name="e_0_energy">   -278.19131178 </i>
   </energy>
  </scstep>
  <scstep>
   <time name="dav">   29.54   29.70</time>
   <time name="total">   33.12   33.32</time>
   <energy>
    <i name="e_fr_energy">   -278.19138621 </i>
    <i name="e_wo_entrp">   -278.19138621 </i>
    <i name="e_0_energy">   -278.19138621 </i>
   </energy>
  </scstep>
  <scstep>
   <time name="dav">   30.04   30.11</time>
   <time name="total">   33.83   33.91</time>
   <energy>
    <i name="e_fr_energy">   -278.19136134 </i>
    <i name="e_wo_entrp">   -278.19136134 </i>
    <i name="e_0_energy">   -278.19136134 </i>
   </energy>
  </scstep>
  <scstep>
   <time name="dav">   29.79   29.91</time>
   <time name="total">   33.41   33.54</time>
   <energy>
    <i name="e_fr_energy">   -278.19136589 </i>
    <i name="e_wo_entrp">   -278.19136589 </i>
    <i name="e_0_energy">   -278.19136589 </i>
   </energy>
  </scstep>
  <scstep>
   <time name="dav">   29.71   29.79</time>
   <time name="total">   33.25   33.34</time>
   <energy>
    <i name="e_fr_energy">   -278.19131701 </i>
    <i name="e_wo_entrp">   -278.19131701 </i>
    <i name="e_0_energy">   -278.19131701 </i>
   </energy>
  </scstep>
  <scstep>
   <time name="dav">   29.57   29.64</time>
   <time name="total">   33.16   33.24</time>
   <energy>
    <i name="e_fr_energy">   -278.19122636 </i>
    <i name="e_wo_entrp">   -278.19122636 </i>
    <i name="e_0_energy">   -278.19122636 </i>
   </energy>
  </scstep>
  <scstep>
   <time name="dav">   37.30   37.39</time>
   <time name="total">   40.93   41.04</time>
   <energy>
    <i name="e_fr_energy">   -278.19145197 </i>
    <i name="e_wo_entrp">   -278.19145197 </i>
    <i name="e_0_energy">   -278.19145197 </i>
   </energy>
  </scstep>
  <scstep>
   <time name="dav">   42.23   42.33</time>
   <time name="total">   45.78   45.89</time>
   <energy>
    <i name="e_fr_energy">   -278.19142928 </i>
    <i name="e_wo_entrp">   -278.19142928 </i>
    <i name="e_0_energy">   -278.19142928 </i>
   </energy>
  </scstep>
  <scstep>
   <time name="dav">   39.95   40.11</time>
   <time name="total">   43.51   43.70</time>
   <energy>
    <i name="e_fr_energy">   -278.19134795 </i>
    <i name="e_wo_entrp">   -278.19134795 </i>
    <i name="e_0_energy">   -278.19134795 </i>
   </energy>
  </scstep>
  <scstep>
   <time name="dav">   31.56   31.66</time>
   <time name="total">   35.18   35.29</time>
   <energy>
    <i name="e_fr_energy">   -278.19119534 </i>
    <i name="e_wo_entrp">   -278.19119534 </i>
    <i name="e_0_energy">   -278.19119534 </i>
   </energy>
  </scstep>
  <scstep>
   <time name="dav">   28.63   28.70</time>
   <time name="total">   32.25   32.33</time>
   <energy>
    <i name="e_fr_energy">   -278.19121507 </i>
    <i name="e_wo_entrp">   -278.19121507 </i>
    <i name="e_0_energy">   -278.19121507 </i>
   </energy>
  </scstep>
  <scstep>
   <time name="dav">   29.88   29.95</time>
   <time name="total">   33.51   33.60</time>
   <energy>
    <i name="e_fr_energy">   -278.19117210 </i>
    <i name="e_wo_entrp">   -278.19117210 </i>
    <i name="e_0_energy">   -278.19117210 </i>
   </energy>
  </scstep>
  <scstep>
   <time name="dav">   28.92   28.99</time>
   <time name="total">   32.47   32.56</time>
   <energy>
    <i name="e_fr_energy">   -278.19116684 </i>
    <i name="e_wo_entrp">   -278.19116684 </i>
    <i name="e_0_energy">   -278.19116684 </i>
   </energy>
  </scstep>
  <scstep>
   <time name="dav">   34.69   34.81</time>
   <time name="total">   38.29   38.43</time>
   <energy>
    <i name="e_fr_energy">   -278.19130794 </i>
    <i name="e_wo_entrp">   -278.19130794 </i>
    <i name="e_0_energy">   -278.19130794 </i>
   </energy>
  </scstep>
  <scstep>
   <time name="dav">   33.87   34.03</time>
   <time name="total">   37.50   37.67</time>
   <energy>
    <i name="e_fr_energy">   -278.19114392 </i>
    <i name="e_wo_entrp">   -278.19114392 </i>
    <i name="e_0_energy">   -278.19114392 </i>
   </energy>
  </scstep>
  <scstep>
   <time name="dav">   28.82   29.08</time>
   <time name="total">   32.40   32.71</time>
   <energy>
    <i name="e_fr_energy">   -278.19112494 </i>
    <i name="e_wo_entrp">   -278.19112494 </i>
    <i name="e_0_energy">   -278.19112494 </i>
   </energy>
  </scstep>
  <scstep>
   <time name="dav">   36.54   36.88</time>
   <time name="total">   40.15   40.53</time>
   <energy>
    <i name="e_fr_energy">   -278.19136474 </i>
    <i name="e_wo_entrp">   -278.19136474 </i>
    <i name="e_0_energy">   -278.19136474 </i>
   </energy>
  </scstep>
  <scstep>
   <time name="dav">   34.46   34.78</time>
   <time name="total">   38.08   38.42</time>
   <energy>
    <i name="e_fr_energy">   -278.19115692 </i>
    <i name="e_wo_entrp">   -278.19115692 </i>
    <i name="e_0_energy">   -278.19115692 </i>
   </energy>
  </scstep>
  <scstep>
   <time name="dav">   28.64   28.90</time>
   <time name="total">   32.26   32.56</time>
   <energy>
    <i name="e_fr_energy">   -278.19116651 </i>
    <i name="e_wo_entrp">   -278.19116651 </i>
    <i name="e_0_energy">   -278.19116651 </i>
   </energy>
  </scstep>
  <scstep>
   <time name="dav">   29.78   29.91</time>
   <time name="total">   33.44   33.57</time>
   <energy>
    <i name="e_fr_energy">   -278.19116924 </i>
    <i name="e_wo_entrp">   -278.19116924 </i>
    <i name="e_0_energy">   -278.19116924 </i>
   </energy>
  </scstep>
  <scstep>
   <time name="dav">   28.26   28.32</time>
   <time name="total">   31.90   31.99</time>
   <energy>
    <i name="e_fr_energy">   -278.19117349 </i>
    <i name="e_wo_entrp">   -278.19117349 </i>
    <i name="e_0_energy">   -278.19117349 </i>
   </energy>
  </scstep>
  <scstep>
   <time name="dav">   35.91   36.00</time>
   <time name="total">   39.54   39.64</time>
   <energy>
    <i name="e_fr_energy">   -278.19129758 </i>
    <i name="e_wo_entrp">   -278.19129758 </i>
    <i name="e_0_energy">   -278.19129758 </i>
   </energy>
  </scstep>
  <scstep>
   <time name="dav">   31.75   31.83</time>
   <time name="total">   35.36   35.45</time>
   <energy>
    <i name="e_fr_energy">   -278.19118790 </i>
    <i name="e_wo_entrp">   -278.19118790 </i>
    <i name="e_0_energy">   -278.19118790 </i>
   </energy>
  </scstep>
  <scstep>
   <time name="dav">   29.90   30.00</time>
   <time name="total">   33.53   33.64</time>
   <energy>
    <i name="e_fr_energy">   -278.19118271 </i>
    <i name="e_wo_entrp">   -278.19118271 </i>
    <i name="e_0_energy">   -278.19118271 </i>
   </energy>
  </scstep>
  <scstep>
   <time name="dav">   29.18   29.26</time>
   <time name="total">   32.76   32.84</time>
   <energy>
    <i name="e_fr_energy">   -278.19117002 </i>
    <i name="e_wo_entrp">   -278.19117002 </i>
    <i name="e_0_energy">   -278.19117002 </i>
   </energy>
  </scstep>
  <scstep>
   <time name="dav">   32.30   32.38</time>
   <time name="total">   35.95   36.04</time>
   <energy>
[...]
       <r>    0.9316    0.0000 </r>
       <r>    0.9390    0.0000 </r>
      </set>
      <set comment="kpoint 8">
       <r>  -23.1318    1.0000 </r>
       <r>  -22.6209    1.0000 </r>
       <r>  -22.4289    1.0000 </r>
       <r>  -21.7555    1.0000 </r>
       <r>  -21.5179    1.0000 </r>
       <r>  -20.8727    1.0000 </r>
       <r>  -20.6695    1.0000 </r>
       <r>  -20.3860    1.0000 </r>
       <r>  -19.7169    1.0000 </r>
       <r>  -19.5039    1.0000 </r>
       <r>  -19.2193    1.0000 </r>
       <r>  -18.7076    1.0000 </r>
       <r>  -18.1244    1.0000 </r>
       <r>  -17.9941    1.0000 </r>
       <r>  -17.6286    1.0000 </r>
       <r>  -17.0579    1.0000 </r>
       <r>  -16.5011    1.0000 </r>
       <r>  -15.8100    1.0000 </r>
       <r>  -15.7808    1.0000 </r>
       <r>  -15.7331    1.0000 </r>
       <r>  -15.3335    1.0000 </r>
       <r>  -14.7334    1.0000 </r>
       <r>  -14.2108    1.0000 </r>
       <r>  -13.8353    1.0000 </r>
       <r>  -13.6511    1.0000 </r>
       <r>  -13.2212    1.0000 </r>
       <r>  -12.6838    1.0000 </r>
       <r>  -12.5793    1.0000 </r>
       <r>  -12.3028    1.0000 </r>
       <r>  -11.8458    1.0000 </r>
       <r>  -11.4015    1.0000 </r>
       <r>  -11.3882    1.0000 </r>
       <r>  -11.1729    1.0000 </r>
       <r>  -11.1492    1.0000 </r>
       <r>  -10.8974    1.0000 </r>
       <r>  -10.7078    1.0000 </r>
       <r>  -10.5313    1.0000 </r>
       <r>  -10.3326    1.0000 </r>
       <r>  -10.3031    1.0000 </r>
       <r>  -10.0835    1.0000 </r>
       <r>   -9.9304    1.0000 </r>
       <r>   -9.7210    1.0000 </r>
       <r>   -9.6000    1.0000 </r>
       <r>   -9.5200    1.0000 </r>
       <r>   -9.5045    1.0000 </r>
       <r>   -9.2745    1.0000 </r>
       <r>   -8.7679    1.0000 </r>
       <r>   -8.6334    1.0000 </r>
       <r>   -8.5147    1.0000 </r>
       <r>   -8.3592    1.0000 </r>
       <r>   -8.0161    1.0000 </r>
       <r>   -7.9845    1.0000 </r>
       <r>   -7.6275    1.0000 </r>
       <r>   -7.3765    1.0000 </r>
       <r>   -7.2889    1.0000 </r>
       <r>   -7.0724    1.0000 </r>
       <r>   -6.8195    1.0000 </r>
       <r>   -6.4149    1.0000 </r>
       <r>   -5.8547    1.0000 </r>
       <r>   -5.6898    1.0000 </r>
       <r>   -5.1066    1.0000 </r>
       <r>   -4.0965    1.0372 </r>
       <r>   -3.7562   -0.0048 </r>
       <r>   -3.5836    0.0000 </r>
       <r>   -2.5942    0.0000 </r>
       <r>   -2.1105    0.0000 </r>
       <r>   -1.8875    0.0000 </r>
       <r>   -1.5313    0.0000 </r>
       <r>   -1.1028    0.0000 </r>
       <r>   -0.6981    0.0000 </r>
       <r>   -0.1416    0.0000 </r>
       <r>   -0.0626    0.0000 </r>
       <r>    0.5308    0.0000 </r>
       <r>    0.6289    0.0000 </r>
       <r>    0.6354    0.0000 </r>
       <r>    0.7141    0.0000 </r>
       <r>    0.8367    0.0000 </r>
       <r>    0.9191    0.0000 </r>
      </set>
      <set comment="kpoint 9">
       <r>  -23.0854    1.0000 </r>
       <r>  -22.7560    1.0000 </r>
       <r>  -22.2724    1.0000 </r>
       <r>  -22.0382    1.0000 </r>
       <r>  -21.1165    1.0000 </r>
       <r>  -20.9240    1.0000 </r>
       <r>  -20.5388    1.0000 </r>
       <r>  -20.4888    1.0000 </r>
       <r>  -20.0918    1.0000 </r>
       <r>  -19.5224    1.0000 </r>
       <r>  -18.8117    1.0000 </r>
       <r>  -18.7373    1.0000 </r>
       <r>  -18.5336    1.0000 </r>
       <r>  -18.0234    1.0000 </r>
       <r>  -17.3879    1.0000 </r>
       <r>  -16.8486    1.0000 </r>
       <r>  -16.1437    1.0000 </r>
       <r>  -16.0630    1.0000 </r>
       <r>  -15.9623    1.0000 </r>
       <r>  -15.6900    1.0000 </r>
       <r>  -15.3330    1.0000 </r>
       <r>  -15.0418    1.0000 </r>
       <r>  -14.2553    1.0000 </r>
       <r>  -13.6796    1.0000 </r>
       <r>  -13.3890    1.0000 </r>
       <r>  -13.2918    1.0000 </r>
       <r>  -12.9761    1.0000 </r>
       <r>  -12.7113    1.0000 </r>
       <r>  -12.2829    1.0000 </r>
       <r>  -11.6329    1.0000 </r>
       <r>  -11.5316    1.0000 </r>
       <r>  -11.1747    1.0000 </r>
       <r>  -11.0904    1.0000 </r>
       <r>  -11.0176    1.0000 </r>
       <r>  -10.8005    1.0000 </r>
       <r>  -10.7072    1.0000 </r>
       <r>  -10.5626    1.0000 </r>
       <r>  -10.4904    1.0000 </r>
       <r>  -10.1734    1.0000 </r>
       <r>  -10.1209    1.0000 </r>
       <r>  -10.0603    1.0000 </r>
       <r>   -9.8825    1.0000 </r>
       <r>   -9.7884    1.0000 </r>
       <r>   -9.7162    1.0000 </r>
       <r>   -9.0627    1.0000 </r>
       <r>   -9.0174    1.0000 </r>
       <r>   -8.7767    1.0000 </r>
       <r>   -8.6075    1.0000 </r>
       <r>   -8.4653    1.0000 </r>
       <r>   -8.2811    1.0000 </r>
       <r>   -8.1412    1.0000 </r>
       <r>   -8.1260    1.0000 </r>
       <r>   -7.7312    1.0000 </r>
       <r>   -7.5692    1.0000 </r>
       <r>   -7.3454    1.0000 </r>
       <r>   -7.1169    1.0000 </r>
       <r>   -6.4158    1.0000 </r>
       <r>   -6.3491    1.0000 </r>
       <r>   -6.2762    1.0000 </r>
       <r>   -5.5782    1.0000 </r>
       <r>   -4.9356    1.0000 </r>
       <r>   -4.0829    1.0000 </r>
       <r>   -3.8484   -0.0032 </r>
       <r>   -3.5373    0.0000 </r>
       <r>   -2.6833    0.0000 </r>
       <r>   -2.2292    0.0000 </r>
       <r>   -1.6614    0.0000 </r>
       <r>   -1.5322    0.0000 </r>
       <r>   -1.2492    0.0000 </r>
       <r>   -0.7453    0.0000 </r>
       <r>   -0.0630    0.0000 </r>
       <r>    0.0476    0.0000 </r>
       <r>    0.3467    0.0000 </r>
       <r>    0.6917    0.0000 </r>
       <r>    0.8962    0.0000 </r>
       <r>    0.9190    0.0000 </r>
       <r>    1.0014    0.0000 </r>
       <r>    1.0794    0.0000 </r>
      </set>
      <set comment="kpoint 10">
       <r>  -23.1342    1.0000 </r>
       <r>  -22.6107    1.0000 </r>
       <r>  -22.4370    1.0000 </r>
       <r>  -21.7433    1.0000 </r>
       <r>  -21.5304    1.0000 </r>
       <r>  -20.8704    1.0000 </r>
       <r>  -20.6842    1.0000 </r>
       <r>  -20.3792    1.0000 </r>
       <r>  -19.7066    1.0000 </r>
       <r>  -19.5075    1.0000 </r>
       <r>  -19.2161    1.0000 </r>
       <r>  -18.7122    1.0000 </r>
       <r>  -18.1196    1.0000 </r>
       <r>  -17.9903    1.0000 </r>
       <r>  -17.6315    1.0000 </r>
       <r>  -17.0467    1.0000 </r>
       <r>  -16.5139    1.0000 </r>
       <r>  -15.8241    1.0000 </r>
       <r>  -15.7794    1.0000 </r>
       <r>  -15.7493    1.0000 </r>
       <r>  -15.3319    1.0000 </r>
       <r>  -14.7177    1.0000 </r>
       <r>  -14.1985    1.0000 </r>
       <r>  -13.8258    1.0000 </r>
       <r>  -13.6588    1.0000 </r>
       <r>  -13.2301    1.0000 </r>
       <r>  -12.6759    1.0000 </r>
       <r>  -12.5803    1.0000 </r>
       <r>  -12.2936    1.0000 </r>
       <r>  -11.8350    1.0000 </r>
       <r>  -11.4242    1.0000 </r>
       <r>  -11.3784    1.0000 </r>
       <r>  -11.1776    1.0000 </r>
       <r>  -11.1511    1.0000 </r>
       <r>  -10.8884    1.0000 </r>
       <r>  -10.7305    1.0000 </r>
       <r>  -10.5241    1.0000 </r>
       <r>  -10.3386    1.0000 </r>
       <r>  -10.3094    1.0000 </r>
       <r>  -10.0695    1.0000 </r>
       <r>   -9.9147    1.0000 </r>
       <r>   -9.7300    1.0000 </r>
       <r>   -9.5974    1.0000 </r>
       <r>   -9.5211    1.0000 </r>
       <r>   -9.5085    1.0000 </r>
       <r>   -9.2814    1.0000 </r>
       <r>   -8.7576    1.0000 </r>
       <r>   -8.6492    1.0000 </r>
       <r>   -8.5161    1.0000 </r>
       <r>   -8.3687    1.0000 </r>
       <r>   -8.0088    1.0000 </r>
       <r>   -7.9874    1.0000 </r>
       <r>   -7.6147    1.0000 </r>
       <r>   -7.3848    1.0000 </r>
       <r>   -7.2795    1.0000 </r>
       <r>   -7.0710    1.0000 </r>
       <r>   -6.8198    1.0000 </r>
       <r>   -6.4186    1.0000 </r>
       <r>   -5.8462    1.0000 </r>
       <r>   -5.6882    1.0000 </r>
       <r>   -5.1056    1.0000 </r>
       <r>   -4.1079    1.0000 </r>
       <r>   -3.8052   -0.1162 </r>
       <r>   -3.5306    0.0000 </r>
       <r>   -2.5890    0.0000 </r>
       <r>   -2.0983    0.0000 </r>
       <r>   -1.8984    0.0000 </r>
       <r>   -1.5342    0.0000 </r>
       <r>   -1.1167    0.0000 </r>
       <r>   -0.6761    0.0000 </r>
       <r>   -0.1426    0.0000 </r>
       <r>   -0.0605    0.0000 </r>
       <r>    0.5104    0.0000 </r>
       <r>    0.6285    0.0000 </r>
       <r>    0.6292    0.0000 </r>
       <r>    0.7136    0.0000 </r>
       <r>    0.8357    0.0000 </r>
       <r>    0.9181    0.0000 </r>
      </set>
      <set comment="kpoint 11">
       <r>  -23.0860    1.0000 </r>
       <r>  -22.7551    1.0000 </r>
       <r>  -22.2714    1.0000 </r>
       <r>  -22.0393    1.0000 </r>
       <r>  -21.1163    1.0000 </r>
       <r>  -20.9247    1.0000 </r>
       <r>  -20.5385    1.0000 </r>
       <r>  -20.4908    1.0000 </r>
       <r>  -20.0901    1.0000 </r>
       <r>  -19.5224    1.0000 </r>
       <r>  -18.8115    1.0000 </r>
       <r>  -18.7360    1.0000 </r>
       <r>  -18.5322    1.0000 </r>
       <r>  -18.0254    1.0000 </r>
       <r>  -17.3889    1.0000 </r>
       <r>  -16.8469    1.0000 </r>
       <r>  -16.1432    1.0000 </r>
       <r>  -16.0642    1.0000 </r>
       <r>  -15.9643    1.0000 </r>
       <r>  -15.6896    1.0000 </r>
       <r>  -15.3330    1.0000 </r>
       <r>  -15.0428    1.0000 </r>
       <r>  -14.2568    1.0000 </r>
       <r>  -13.6790    1.0000 </r>
       <r>  -13.3869    1.0000 </r>
       <r>  -13.2901    1.0000 </r>
       <r>  -12.9757    1.0000 </r>
       <r>  -12.7091    1.0000 </r>
       <r>  -12.2825    1.0000 </r>
       <r>  -11.6336    1.0000 </r>
       <r>  -11.5332    1.0000 </r>
       <r>  -11.1755    1.0000 </r>
       <r>  -11.0909    1.0000 </r>
       <r>  -11.0206    1.0000 </r>
       <r>  -10.8001    1.0000 </r>
       <r>  -10.7066    1.0000 </r>
       <r>  -10.5605    1.0000 </r>
       <r>  -10.4917    1.0000 </r>
       <r>  -10.1720    1.0000 </r>
       <r>  -10.1203    1.0000 </r>
       <r>  -10.0607    1.0000 </r>
       <r>   -9.8830    1.0000 </r>
       <r>   -9.7848    1.0000 </r>
       <r>   -9.7162    1.0000 </r>
       <r>   -9.0655    1.0000 </r>
       <r>   -9.0208    1.0000 </r>
       <r>   -8.7766    1.0000 </r>
       <r>   -8.6080    1.0000 </r>
       <r>   -8.4608    1.0000 </r>
       <r>   -8.2884    1.0000 </r>
       <r>   -8.1423    1.0000 </r>
       <r>   -8.1261    1.0000 </r>
       <r>   -7.7302    1.0000 </r>
       <r>   -7.5622    1.0000 </r>
       <r>   -7.3471    1.0000 </r>
       <r>   -7.1168    1.0000 </r>
       <r>   -6.4149    1.0000 </r>
       <r>   -6.3475    1.0000 </r>
       <r>   -6.2774    1.0000 </r>
       <r>   -5.5795    1.0000 </r>
       <r>   -4.9349    1.0000 </r>
       <r>   -4.0827    1.0000 </r>
       <r>   -3.8553    0.0303 </r>
       <r>   -3.5298    0.0000 </r>
       <r>   -2.6869    0.0000 </r>
       <r>   -2.2263    0.0000 </r>
       <r>   -1.6577    0.0000 </r>
       <r>   -1.5326    0.0000 </r>
       <r>   -1.2492    0.0000 </r>
       <r>   -0.7477    0.0000 </r>
       <r>   -0.0632    0.0000 </r>
       <r>    0.0455    0.0000 </r>
       <r>    0.3466    0.0000 </r>
       <r>    0.6915    0.0000 </r>
       <r>    0.8946    0.0000 </r>
       <r>    0.9189    0.0000 </r>
       <r>    1.0012    0.0000 </r>
       <r>    1.0793    0.0000 </r>
      </set>
      <set comment="kpoint 12">
       <r>  -22.9778    1.0000 </r>
       <r>  -22.8374    1.0000 </r>
       <r>  -22.5259    1.0000 </r>
       <r>  -21.7112    1.0000 </r>
       <r>  -21.2357    1.0000 </r>
       <r>  -20.9733    1.0000 </r>
       <r>  -20.3788    1.0000 </r>
       <r>  -20.2073    1.0000 </r>
       <r>  -20.0493    1.0000 </r>
       <r>  -19.8004    1.0000 </r>
       <r>  -19.5124    1.0000 </r>
       <r>  -18.8695    1.0000 </r>
       <r>  -17.9769    1.0000 </r>
       <r>  -17.7103    1.0000 </r>
       <r>  -17.2431    1.0000 </r>
       <r>  -16.6637    1.0000 </r>
       <r>  -16.4526    1.0000 </r>
       <r>  -16.3901    1.0000 </r>
       <r>  -16.1772    1.0000 </r>
       <r>  -15.4132    1.0000 </r>
       <r>  -15.0460    1.0000 </r>
       <r>  -14.7269    1.0000 </r>
       <r>  -14.3432    1.0000 </r>
       <r>  -14.1210    1.0000 </r>
       <r>  -13.8421    1.0000 </r>
       <r>  -13.6946    1.0000 </r>
       <r>  -12.6418    1.0000 </r>
       <r>  -12.4484    1.0000 </r>
       <r>  -11.9665    1.0000 </r>
       <r>  -11.6451    1.0000 </r>
       <r>  -11.5149    1.0000 </r>
       <r>  -11.2216    1.0000 </r>
       <r>  -10.9540    1.0000 </r>
       <r>  -10.8038    1.0000 </r>
       <r>  -10.7854    1.0000 </r>
       <r>  -10.6975    1.0000 </r>
       <r>  -10.5402    1.0000 </r>
       <r>  -10.4932    1.0000 </r>
       <r>  -10.4473    1.0000 </r>
       <r>  -10.3115    1.0000 </r>
       <r>  -10.0622    1.0000 </r>
       <r>  -10.0282    1.0000 </r>
       <r>   -9.6254    1.0000 </r>
       <r>   -9.4780    1.0000 </r>
       <r>   -9.1921    1.0000 </r>
       <r>   -8.9308    1.0000 </r>
       <r>   -8.9150    1.0000 </r>
       <r>   -8.6726    1.0000 </r>
       <r>   -8.4514    1.0000 </r>
       <r>   -8.2273    1.0000 </r>
       <r>   -7.9615    1.0000 </r>
       <r>   -7.8178    1.0000 </r>
       <r>   -7.7480    1.0000 </r>
       <r>   -7.6820    1.0000 </r>
       <r>   -7.3972    1.0000 </r>
       <r>   -7.2724    1.0000 </r>
       <r>   -7.0710    1.0000 </r>
       <r>   -6.5349    1.0000 </r>
       <r>   -5.7655    1.0000 </r>
       <r>   -5.4795    1.0000 </r>
       <r>   -4.7890    1.0000 </r>
       <r>   -3.8826    0.9991 </r>
       <r>   -3.8554    0.2518 </r>
       <r>   -3.5825    0.0000 </r>
       <r>   -3.0686    0.0000 </r>
       <r>   -2.2898    0.0000 </r>
       <r>   -2.0631    0.0000 </r>
       <r>   -1.5055    0.0000 </r>
       <r>   -0.6517    0.0000 </r>
       <r>   -0.2958    0.0000 </r>
       <r>    0.1434    0.0000 </r>
       <r>    0.1789    0.0000 </r>
       <r>    0.2174    0.0000 </r>
       <r>    0.3643    0.0000 </r>
       <r>    0.5998    0.0000 </r>
       <r>    0.7011    0.0000 </r>
       <r>    0.9289    0.0000 </r>
       <r>    0.9384    0.0000 </r>
      </set>
      <set comment="kpoint 13">
       <r>  -22.9765    1.0000 </r>
       <r>  -22.8392    1.0000 </r>
       <r>  -22.5256    1.0000 </r>
       <r>  -21.7115    1.0000 </r>
       <r>  -21.2345    1.0000 </r>
       <r>  -20.9740    1.0000 </r>
       <r>  -20.3779    1.0000 </r>
       <r>  -20.2065    1.0000 </r>
       <r>  -20.0500    1.0000 </r>
       <r>  -19.8016    1.0000 </r>
       <r>  -19.5124    1.0000 </r>
       <r>  -18.8699    1.0000 </r>
       <r>  -17.9778    1.0000 </r>
       <r>  -17.7088    1.0000 </r>
       <r>  -17.2436    1.0000 </r>
       <r>  -16.6656    1.0000 </r>
       <r>  -16.4499    1.0000 </r>
       <r>  -16.3906    1.0000 </r>
       <r>  -16.1764    1.0000 </r>
       <r>  -15.4130    1.0000 </r>
       <r>  -15.0472    1.0000 </r>
       <r>  -14.7257    1.0000 </r>
       <r>  -14.3408    1.0000 </r>
       <r>  -14.1223    1.0000 </r>
       <r>  -13.8437    1.0000 </r>
       <r>  -13.6947    1.0000 </r>
       <r>  -12.6426    1.0000 </r>
       <r>  -12.4511    1.0000 </r>
       <r>  -11.9663    1.0000 </r>
       <r>  -11.6446    1.0000 </r>
       <r>  -11.5125    1.0000 </r>
       <r>  -11.2235    1.0000 </r>
       <r>  -10.9529    1.0000 </r>
       <r>  -10.8053    1.0000 </r>
       <r>  -10.7848    1.0000 </r>
       <r>  -10.6940    1.0000 </r>
       <r>  -10.5402    1.0000 </r>
       <r>  -10.4921    1.0000 </r>
       <r>  -10.4471    1.0000 </r>
       <r>  -10.3119    1.0000 </r>
       <r>  -10.0639    1.0000 </r>
       <r>  -10.0306    1.0000 </r>
       <r>   -9.6283    1.0000 </r>
       <r>   -9.4784    1.0000 </r>
       <r>   -9.1873    1.0000 </r>
       <r>   -8.9307    1.0000 </r>
       <r>   -8.9140    1.0000 </r>
       <r>   -8.6730    1.0000 </r>
       <r>   -8.4528    1.0000 </r>
       <r>   -8.2208    1.0000 </r>
       <r>   -7.9606    1.0000 </r>
       <r>   -7.8177    1.0000 </r>
       <r>   -7.7547    1.0000 </r>
       <r>   -7.6824    1.0000 </r>
       <r>   -7.3977    1.0000 </r>
       <r>   -7.2716    1.0000 </r>
       <r>   -7.0713    1.0000 </r>
       <r>   -6.5348    1.0000 </r>
       <r>   -5.7665    1.0000 </r>
       <r>   -5.4780    1.0000 </r>
       <r>   -4.7896    1.0000 </r>
       <r>   -3.8780    0.9905 </r>
       <r>   -3.8557    0.0974 </r>
       <r>   -3.5874    0.0000 </r>
       <r>   -3.0669    0.0000 </r>
       <r>   -2.2911    0.0000 </r>
       <r>   -2.0635    0.0000 </r>
       <r>   -1.5059    0.0000 </r>
       <r>   -0.6532    0.0000 </r>
       <r>   -0.2945    0.0000 </r>
       <r>    0.1441    0.0000 </r>
       <r>    0.1842    0.0000 </r>
       <r>    0.2170    0.0000 </r>
       <r>    0.3636    0.0000 </r>
       <r>    0.5996    0.0000 </r>
       <r>    0.6986    0.0000 </r>
       <r>    0.9295    0.0000 </r>
       <r>    0.9381    0.0000 </r>
      </set>
     </set>
    </set>
   </array>
  </eigenvalues>
  <separator name="orbital magnetization" >
   <v name="MAGDIPOLOUT">      0.00000000      0.00000000      0.00000000</v>
  </separator>
 </calculation>
 <structure name="finalpos" >
  <crystal>
   <varray name="basis" >
    <v>       9.81620680       0.00706583       0.00000952 </v>
    <v>       4.92084228       8.51324057       0.00001727 </v>
    <v>       0.00004787       0.00007360      49.91257838 </v>
   </varray>
   <i name="volume">   4169.34541869 </i>
   <varray name="rec_basis" >
    <v>       0.10191475      -0.05890899      -0.00000001 </v>
    <v>      -0.00008459       0.11751298      -0.00000017 </v>
    <v>      -0.00000002      -0.00000003       0.02003503 </v>
   </varray>
  </crystal>
  <varray name="positions" >
   <v>       0.00034999       0.00004198       0.43999953 </v>
   <v>       0.08291450       0.08344003       0.43999948 </v>
   <v>      -0.00051206       0.25016326       0.43999963 </v>
   <v>       0.08291941       0.33325794       0.44000005 </v>
   <v>       0.00036488       0.49935238       0.44000009 </v>
   <v>       0.08454618       0.58316231       0.44000000 </v>
   <v>       1.00087229       0.74941483       0.44000008 </v>
   <v>       0.08456938       0.83200680       0.44000011 </v>
   <v>       0.24970673       0.00017488       0.44000031 </v>
   <v>       0.33302780       0.08329730       0.44000042 </v>
   <v>       0.24964665       0.24987110       0.44000020 </v>
   <v>       0.33218845       0.33221077       0.43999849 </v>
   <v>       0.25460856       0.49807955       0.43999830 </v>
   <v>       0.33325184       0.58311730       0.43999715 </v>
   <v>       0.25471243       0.74690889       0.43999984 </v>
   <v>       0.33220950       0.83523811       0.44000016 </v>
   <v>       0.49931885       0.00022678       0.43999954 </v>
   <v>       0.58343715       0.08352134       0.44000073 </v>
   <v>       0.49828564       0.25285437       0.44000247 </v>
   <v>       0.58345061       0.33001523       0.44000167 </v>
   <v>       0.58373395       0.58630501       0.44000952 </v>
   <v>       0.49839510       0.74858102       0.43999811 </v>
   <v>       0.58344669       0.83281739       0.43999873 </v>
   <v>       0.74983125       1.00018261       0.43999993 </v>
   <v>       0.83227979       0.08400217       0.43999844 </v>
   <v>       0.74693528       0.25399702       0.43999665 </v>
   <v>       0.83415067       0.33275926       0.44000077 </v>
   <v>       0.74705934       0.49888730       0.43999957 </v>
   <v>       0.83234264       0.58346304       0.43999913 </v>
   <v>       0.74986687       0.74972153       0.44000035 </v>
   <v>       0.83356637       0.83312353       0.44000059 </v>
  </varray>
 </structure>
</modeling>
