unknown system                          
           1
     9.846720    0.000000    0.000000
     4.930000    8.528480    0.000000
     0.000000    0.000000   50.000000
   C 
  31
Direct configuration=     1
   0.00051788  0.00044240  0.44000000
   0.08261287  0.08265508  0.44000000
   0.00123391  0.24951738  0.44000000
   0.08291691  0.33410075  0.44000000
   0.00029781  0.49914275  0.44000000
   0.08378260  0.58281626  0.44000000
   0.99987699  0.74976891  0.44000000
   0.08376431  0.83316279  0.44000000
   0.24945290  0.00126362  0.44000000
   0.33411657  0.08292950  0.44000000
   0.24894138  0.24904430  0.44000000
   0.33289354  0.33285143  0.44000000
   0.25353828  0.49777145  0.44000000
   0.33054941  0.58427699  0.44000000
   0.25393386  0.74830403  0.44000000
   0.33247181  0.83450735  0.44000000
   0.49917141  0.00024332  0.44000000
   0.58291526  0.08355137  0.44000000
   0.49767332  0.25325874  0.44000000
   0.58446034  0.32986108  0.44000000
   0.58473974  0.58506030  0.44000000
   0.49829708  0.74842358  0.44000000
   0.58264570  0.83332975  0.44000000
   0.74982116  0.99979671  0.44000000
   0.83326258  0.08361840  0.44000000
   0.74841264  0.25378043  0.44000000
   0.83437203  0.33252139  0.44000000
   0.74815356  0.49843493  0.44000000
   0.83329452  0.58259828  0.44000000
   0.74992765  0.74989841  0.44000000
   0.83342870  0.83326336  0.44000000
unknown system                          
           1
     9.770915    0.001817   -0.000001
     4.893620    8.461486    0.000002
    -0.000004    0.000017   49.969381
   C 
  31
Direct configuration=     2
  -0.00059798 -0.00108204  0.44000001
   0.08558065  0.08587375  0.43999999
  -0.00397029  0.25111423  0.44000002
   0.08428778  0.33025231  0.44000003
   0.00032740  0.50012842  0.44000000
   0.08336800  0.58485063  0.44000000
   1.00276989  0.74900551  0.44000002
   0.08403128  0.83073498  0.43999999
   0.25147624 -0.00369259  0.43999999
   0.32979805  0.08467509  0.44000000
   0.25312288  0.25208035  0.44000000
   0.32895716  0.32957298  0.43999998
   0.25395692  0.49929654  0.43999995
   0.32968025  0.58533757  0.44000027
   0.25357838  0.74612844  0.43999989
   0.33137809  0.83897338  0.44000009
   0.50030325  0.00001015  0.44000000
   0.58427919  0.08350006  0.44000002
   0.50118683  0.25292318  0.43999995
   0.58463051  0.32873469  0.43999984
   0.58446195  0.58683091  0.44000021
   0.49950057  0.74643408  0.43999985
   0.58529157  0.83121386  0.43999998
   0.74948679  1.00211205  0.44000000
   0.83077518  0.08417008  0.44000000
   0.74572256  0.25317029  0.43999993
   0.83857759  0.33185956  0.43999996
   0.74687795  0.49847082  0.43999997
   0.83082668  0.58565414  0.44000000
   0.74920421  0.74891205  0.44000002
   0.83260723  0.83294956  0.44000004
unknown system                          
           1
     9.811291    0.004445   -0.000003
     4.916110    8.504670   -0.000000
    -0.000016    0.000008   49.969839
   C 
  31
Direct configuration=     3
   0.00036433  0.00008180  0.43999997
   0.08357113  0.08361529  0.44000004
   0.00045139  0.24965083  0.44000008
   0.08338068  0.33280984  0.44000002
   0.00038670  0.49904762  0.44000003
   0.08422518  0.58383184  0.43999994
   1.00057271  0.74954972  0.44000005
   0.08434945  0.83169761  0.43999991
   0.24971422  0.00070326  0.44000003
   0.33276737  0.08344733  0.43999997
   0.24928171  0.24884013  0.43999997
   0.33311076  0.33304941  0.44000012
   0.25376361  0.49804412  0.43999984
   0.33077993  0.58441960  0.44000070
   0.25386224  0.74774235  0.43999981
   0.33301928  0.83421249  0.44000007
   0.49901041  0.00025818  0.43999998
   0.58387943  0.08385036  0.43999991
   0.49875127  0.25281426  0.43999969
   0.58430345  0.32983705  0.44000023
   0.58450892  0.58570106  0.44000014
   0.49850243  0.74819749  0.43999983
   0.58391049  0.83211195  0.43999996
   0.74965473  1.00030121  0.44000002
   0.83177240  0.08427410  0.44000000
   0.74740496  0.25362299  0.43999995
   0.83374832  0.33315017  0.43999985
   0.74759309  0.49846047  0.43999980
   0.83186209  0.58384769  0.43999996
   0.74967386  0.74976140  0.44000003
   0.83330017  0.83326343  0.44000011
unknown system                          
           1
     9.850720   -0.003494    0.000007
     4.928969    8.539732    0.000002
     0.000034   -0.000006   49.941210
   C 
  31
Direct configuration=     4
   0.00051747  0.00054689  0.43999989
   0.08181335  0.08193098  0.44000002
  -0.00136312  0.25083827  0.44000005
   0.08225808  0.33461910  0.44000001
  -0.00000853  0.49995465  0.44000008
   0.08372775  0.58164998  0.43999975
   0.99947558  0.75005510  0.44000007
   0.08348672  0.83428846  0.43999981
   0.25055111 -0.00122237  0.44000015
   0.33490594  0.08209279  0.44000000
   0.25069883  0.25136227  0.44000005
   0.33164485  0.33053106  0.43999984
   0.25467995  0.49832847  0.43999937
   0.33231333  0.58365295  0.44000102
   0.25516588  0.74704181  0.43999977
   0.33111385  0.83640257  0.44000002
   0.50019653 -0.00011600  0.43999989
   0.58189402  0.08295565  0.43999978
   0.49768730  0.25393808  0.43999968
   0.58363780  0.33077224  0.44000145
   0.58379496  0.58535025  0.44000143
   0.49876355  0.74794942  0.43999934
   0.58147040  0.83479447  0.43999971
   0.75037879  0.99926988  0.44000006
   0.83427298  0.08310048  0.43999973
   0.74744641  0.25483183  0.43999928
   0.83554134  0.33119506  0.44000006
   0.74702442  0.49906834  0.43999937
   0.83424737  0.58171436  0.43999986
   0.75052278  0.75003911  0.44000013
   0.83361702  0.83325888  0.44000032
unknown system                          
           1
     9.826361    0.004831    0.000016
     4.923989    8.513918    0.000004
     0.000079   -0.000021   49.945538
   C 
  31
Direct configuration=     5
   0.00013203  0.00006180  0.43999989
   0.08325581  0.08356466  0.43999994
  -0.00033904  0.24976887  0.43999998
   0.08304462  0.33347806  0.43999998
   0.00037264  0.49905258  0.44000005
   0.08415421  0.58334835  0.43999973
   1.00097213  0.74945631  0.44000007
   0.08420284  0.83223687  0.43999979
   0.24960136  0.00000480  0.44000023
   0.33332578  0.08327210  0.44000014
   0.24969520  0.24969398  0.44000017
   0.33228868  0.33238543  0.43999956
   0.25420862  0.49811391  0.43999914
   0.33198032  0.58382054  0.44000048
   0.25408041  0.74731031  0.43999956
   0.33248338  0.83514112  0.43999986
   0.49916594  0.00027134  0.43999974
   0.58361475  0.08358083  0.43999972
   0.49835177  0.25307396  0.43999980
   0.58393674  0.33021319  0.44000260
   0.58413151  0.58563278  0.44000307
   0.49828618  0.74840761  0.43999916
   0.58372594  0.83252376  0.43999955
   0.74969762  1.00058405  0.44000012
   0.83237273  0.08390272  0.43999945
   0.74719313  0.25364881  0.43999866
   0.83472054  0.33277700  0.44000038
   0.74740032  0.49857118  0.43999890
   0.83234053  0.58362775  0.43999961
   0.74966431  0.74956948  0.44000018
   0.83341575  0.83310089  0.44000047
unknown system                          
           1
     9.795050    0.000124   -0.000004
     4.904230    8.494240    0.000004
    -0.000023    0.000037   49.907324
   C 
  31
Direct configuration=     6
   0.00075005  0.00022826  0.43999980
   0.08282737  0.08312408  0.43999999
   0.00023212  0.25048686  0.43999993
   0.08327894  0.33205217  0.44000011
   0.00016103  0.49989930  0.43999989
   0.08470732  0.58339620  0.43999999
   1.00027286  0.74953331  0.44000003
   0.08453576  0.83172075  0.43999994
   0.25028709  0.00069248  0.44000007
   0.33200065  0.08347621  0.44000022
   0.24983363  0.24965207  0.44000002
   0.33224525  0.33227248  0.43999926
   0.25423315  0.49785339  0.43999982
   0.33210564  0.58376761  0.43999929
   0.25470379  0.74746955  0.44000001
   0.33188934  0.83494866  0.43999963
   0.49984224 -0.00005040  0.43999970
   0.58326287  0.08410003  0.43999987
   0.49860264  0.25300937  0.44000069
   0.58368954  0.32975121  0.44000122
   0.58381960  0.58639552  0.44000240
   0.49885946  0.74798218  0.44000013
   0.58315680  0.83261609  0.43999956
   0.75011044  0.99947370  0.44000004
   0.83178601  0.08435745  0.43999933
   0.74745106  0.25432530  0.43999962
   0.83368096  0.33240921  0.43999958
   0.74748841  0.49863217  0.43999999
   0.83197812  0.58336852  0.43999940
   0.75020804  0.74987914  0.44000011
   0.83347657  0.83337216  0.44000036
unknown system                          
           1
     9.813425    0.007606   -0.000003
     4.919918    8.510512    0.000006
    -0.000018    0.000045   49.905513
   C 
  31
Direct configuration=     7
   0.00027878 -0.00002274  0.43999974
   0.08322689  0.08359657  0.43999994
  -0.00058887  0.24984481  0.43999993
   0.08315181  0.33338974  0.44000013
   0.00043459  0.49920533  0.43999986
   0.08430783  0.58332473  0.44000002
   1.00080764  0.74952145  0.44000005
   0.08438927  0.83199888  0.43999988
   0.24963507 -0.00000478  0.44000003
   0.33320867  0.08342168  0.44000019
   0.24980476  0.24964806  0.44000006
   0.33221634  0.33210944  0.43999922
   0.25450048  0.49799048  0.43999998
   0.33250116  0.58351166  0.43999939
   0.25444369  0.74714289  0.43999965
   0.33237350  0.83543244  0.43999980
   0.49915538  0.00030902  0.43999974
   0.58350790  0.08350713  0.43999991
   0.49835947  0.25307993  0.44000043
   0.58371735  0.33004189  0.44000108
   0.58396347  0.58601028  0.44000303
   0.49824111  0.74838246  0.44000010
   0.58360613  0.83272806  0.43999958
   0.74976630  1.00031767  0.44000001
   0.83222281  0.08406270  0.43999938
   0.74693403  0.25392870  0.43999960
   0.83454098  0.33279980  0.43999968
   0.74713759  0.49855281  0.43999974
   0.83234019  0.58353514  0.43999936
   0.74978795  0.74977911  0.44000011
   0.83350445  0.83304969  0.44000038
unknown system                          
           1
     9.817688    0.006052   -0.000014
     4.920705    8.513631    0.000004
    -0.000070    0.000063   49.922604
   C 
  31
Direct configuration=     8
   0.00031225  0.00010049  0.43999974
   0.08300241  0.08334938  0.43999995
  -0.00032534  0.25011559  0.43999990
   0.08299555  0.33319220  0.44000015
   0.00033608  0.49931855  0.43999986
   0.08450016  0.58319440  0.44000012
   1.00080411  0.74942989  0.44000006
   0.08449890  0.83207997  0.43999990
   0.24973776  0.00021665  0.43999996
   0.33308531  0.08322022  0.44000014
   0.24967433  0.24988271  0.43999998
   0.33230360  0.33219038  0.43999938
   0.25436792  0.49827507  0.44000016
   0.33266974  0.58345866  0.43999931
   0.25447205  0.74691291  0.43999983
   0.33227361  0.83518067  0.43999989
   0.49933080  0.00022124  0.43999981
   0.58344555  0.08363310  0.44000005
   0.49839036  0.25287740  0.44000059
   0.58372330  0.33010690  0.44000004
   0.58393828  0.58596272  0.44000217
   0.49850853  0.74844032  0.44000032
   0.58344470  0.83272881  0.43999969
   0.74978860  1.00027458  0.43999996
   0.83228152  0.08401483  0.43999957
   0.74693007  0.25390138  0.43999994
   0.83424042  0.33268157  0.43999950
   0.74708094  0.49896106  0.44000019
   0.83231641  0.58346968  0.43999954
   0.74982264  0.74963467  0.44000004
   0.83352618  0.83316905  0.44000023
unknown system                          
           1
     9.819981    0.004345    0.000012
     4.920375    8.513849    0.000018
     0.000060    0.000071   49.913327
   C 
  31
Direct configuration=     9
   0.00039174  0.00010067  0.43999955
   0.08276951  0.08337449  0.43999952
  -0.00062485  0.25023640  0.43999960
   0.08281255  0.33338406  0.44000003
   0.00036236  0.49935096  0.44000012
   0.08442245  0.58310256  0.43999999
   1.00085109  0.74946945  0.44000006
   0.08439914  0.83214363  0.44000006
   0.24987985 -0.00002041  0.44000030
   0.33305349  0.08327656  0.44000037
   0.24984558  0.24996271  0.44000026
   0.33204057  0.33224090  0.43999851
   0.25470414  0.49792895  0.43999832
   0.33316717  0.58316121  0.43999772
   0.25482133  0.74704642  0.43999982
   0.33206072  0.83522916  0.44000028
   0.49945189  0.00016333  0.43999956
   0.58328900  0.08351076  0.44000056
   0.49829943  0.25293904  0.44000212
   0.58334216  0.33010818  0.44000193
   0.58361026  0.58630278  0.44000870
   0.49841489  0.74852167  0.43999797
   0.58330379  0.83294656  0.43999895
   0.74996272  1.00012319  0.43999993
   0.83237865  0.08384576  0.43999867
   0.74714920  0.25407366  0.43999669
   0.83418717  0.33267901  0.44000103
   0.74722776  0.49869910  0.43999922
   0.83245574  0.58343396  0.43999923
   0.74996887  0.74970630  0.44000035
   0.83347834  0.83315401  0.44000057
unknown system                          
           1
     9.816207    0.007066    0.000010
     4.920842    8.513241    0.000017
     0.000048    0.000074   49.912578
   C 
  31
Direct configuration=    10
   0.00034999  0.00004198  0.43999953
   0.08291450  0.08344003  0.43999948
  -0.00051206  0.25016326  0.43999963
   0.08291941  0.33325794  0.44000005
   0.00036488  0.49935238  0.44000009
   0.08454618  0.58316231  0.44000000
   1.00087229  0.74941483  0.44000008
   0.08456938  0.83200680  0.44000011
   0.24970673  0.00017488  0.44000031
   0.33302780  0.08329730  0.44000042
   0.24964665  0.24987110  0.44000020
   0.33218845  0.33221077  0.43999849
   0.25460856  0.49807955  0.43999830
   0.33325184  0.58311730  0.43999715
   0.25471243  0.74690889  0.43999984
   0.33220950  0.83523811  0.44000016
   0.49931885  0.00022678  0.43999954
   0.58343715  0.08352134  0.44000073
   0.49828564  0.25285437  0.44000247
   0.58345061  0.33001523  0.44000167
   0.58373395  0.58630501  0.44000952
   0.49839510  0.74858102  0.43999811
   0.58344669  0.83281739  0.43999873
   0.74983125  1.00018261  0.43999993
   0.83227979  0.08400217  0.43999844
   0.74693528  0.25399702  0.43999665
   0.83415067  0.33275926  0.44000077
   0.74705934  0.49888730  0.43999957
   0.83234264  0.58346304  0.43999913
   0.74986687  0.74972153  0.44000035
   0.83356637  0.83312353  0.44000059
