units           metal
atom_style      atomic
boundary        p p p
processors		  * * 1
read_data		    AB2.data
Reading data file ...
  triclinic box = (0 0 0) to (9.7780633 8.5055227 49.730763) with tilt (4.8257792 0.29560231 0.17731162)
WARNING: Triclinic box skew is large. LAMMPS will run inefficiently. (src/domain.cpp:220)
  1 by 1 by 1 MPI processor grid
  reading atoms ...
  62 atoms
  read_data CPU = 0.009 seconds
mass            1 12.011

# Define potentials
pair_style      airebo 3.0
pair_coeff      * * CH.airebo C
Reading airebo potential file CH.airebo with DATE: 2011-10-25


# Variable
variable        thermofrq equal 10
variable        Nloop equal 100     # number of loop to run
variable        binding equal pe


# Output
thermo          ${thermofrq}
thermo          10
thermo_style    custom step temp pe lx ly lz pxx pyy pzz fmax fnorm
thermo_modify   line one format float %20.16g
thermo_modify   flush yes norm no lost warn

# Minimize the system in loops
timestep        1.0e-3
variable        nr loop ${Nloop}
variable        nr loop 100
label           loopmin

# Minimize the with cg + box/relax
  fix             frb all box/relax tri 0.0 couple none
  min_style       cg
  min_modify      line quadratic
  minimize        0.0 1.0e-3 10000 10000
Neighbor list info ...
  update: every = 1 steps, delay = 0 steps, check = yes
  max neighbors/atom: 2000, page size: 100000
  master list distance cutoff = 12.2
  ghost atom cutoff = 12.2
  binsize = 6.1, bins = 3 2 9
  1 neighbor lists, perpetual/occasional/extra = 1 0 0
  (1) pair airebo, perpetual
      attributes: full, newton on, ghost
      pair build: full/bin/ghost
      stencil: full/ghost/bin/3d
      bin: standard
WARNING: Energy due to 6 extra global DOFs will be included in minimizer energies
 (src/min.cpp:225)
Per MPI rank memory allocation (min/avg/max) = 5.045 | 5.045 | 5.045 Mbytes
   Step          Temp          PotEng           Lx             Ly             Lz            Pxx            Pyy            Pzz            Fmax          Fnorm     
         0                     0   -451.8991172110243    9.778063253799999         8.5055227422        49.7307626741   -22771.13820222663   -22013.13951980072    1383.392522987999    2.674149611827017    9.381102363027555
        10                     0   -452.0101506048389    9.768285190546196    8.497302069682641    49.73390166995547   -21437.11691395195   -20714.37889691676     1419.37025118496    2.691413416288314    9.403814189504109
        20                     0   -452.1141327765852    9.758507127292395    8.489085504947758    49.73732513581329    -20085.7178400165   -19398.89227864826    1455.185586844874    2.708299989195943    9.428883435550873
        30                     0   -452.2110669222394    9.748729064038592    8.480873534061903    49.74107490155186   -18716.86183928442   -18066.71817250723    1490.730253917266    2.724752068961559     9.45610502118171
        40                     0   -452.3009703938629    9.738951000784789    8.472666713999594    49.74520286943756   -17330.50718436981   -16717.91917620026    1525.869420306176    2.740698219287268    9.485198908960966
        50                     0   -452.3838783852967    9.729172937530988    8.464465697487453    49.74977455602865   -15926.64326431691   -15352.60404458821    1560.432236346384    2.756049249826223    9.515789855743845
        60                     0   -452.4598489713833    9.719394874277185     8.45627127141228    49.75487435480986   -14505.30324509898   -13970.91458411265    1594.200088664858    2.770689295424048    9.547381056793023
        70                     0   -452.5289704221795    9.709616811023382    8.448084412103631    49.76061362679039   -13066.57839584308    -12573.0737188471    1626.883398549249    2.784464976721042    9.579316762409899
        80                     0   -452.5913722524653    9.699838747769581    8.439906360995623    49.76714366605303   -11610.64108645213   -11159.42089094667    1658.089651239394    2.797167101268252    9.610726674126635
        90                     0   -452.6472426491703    9.690060684515778    8.431738742628665    49.77467759443919   -10137.77329999793   -9730.439044328552    1687.269286748516    2.808498391967118    9.640434924460278
       100                     0    -452.696857774944    9.680282621261975    8.423583770433229    49.78352975989637   -8648.431844444432   -8286.859027435217    1713.616635244771    2.818017394949781    9.666811914775121
       110                     0    -452.740635519441    9.670504558008174    8.415444611359746    49.79419279868313   -7143.353849475239   -6829.792289018674     1735.88280450225    2.825028509059019    9.687498623896877
       120                     0   -452.7792458047119    9.660726494754371    8.407326126448174    49.80750616958309   -5623.791822501908   -5361.030522225365     1751.95852875803    2.828338713569672     9.69883717755911
       130                     0   -452.8138775556834    9.650948431500568    8.399236600665784    49.82508908243858   -4092.060834861149   -3883.762976530509    1757.826071716288    2.825631749175187    9.694486571597626
       140                     0   -452.8463818277996    9.641373162006678     8.39135897518978    49.85012503261895   -2585.194389006504   -2435.385504372739    1744.689141081175    2.811853910435234    9.662134312495544
       150                     0   -452.8740019321081    9.634184767344706     8.38549795305657    49.88082283208546   -1457.697719594615   -1357.464925458399    1706.193265041291    2.784405821689969     9.59779727159567
       160                     0   -452.9006614554665    9.629321665651217    8.381588614167379    49.91871166989944   -709.0896254461614   -647.9542674048572    1639.630574861574     2.74097212399086    9.500494591306218
       170                     0   -452.9302481001184    9.626390948909087    8.379287366893825    49.96712509657836   -282.2730036160974    -249.885134348949    1540.459911256819    2.677105293694458    9.363839804093855
       180                     0   -452.9589283978153    9.625090884087617    8.378298952238042    50.01685585925243   -119.1574074208597   -102.6260278479016    1433.152810322502    2.606161405963213    9.215295163262434
       190                     0   -452.9874521203391    9.624455227661752    8.377822862809424     50.0665866219265   -61.69136032234174   -53.75195582085967    1325.746003399222    2.552639695125866    9.059275543442652
       200                     0   -453.0165296965669    9.624058168831535    8.377515716607526    50.11631738460058   -41.21716490092733   -37.91680441737715    1220.324281759949    2.533890712684266    8.895294054815816
       210                     0   -453.0465114209763    9.623743308213401    8.377257290819523    50.16604814727465   -32.86564213372384   -31.99121294664971    1117.674497740984    2.511645721752075    8.722825058941604
       220                     0    -453.077614176952    9.623456950418802    8.377010429553673    50.21577890994872   -28.29312553590133   -28.61844817585751    1018.171695543118    2.485836085572319    8.541339094653559
       230                     0    -453.110021782638    9.623181927842303    8.376765853188061     50.2655096726228   -24.89793744835575   -25.77730088377377    922.1216720456683    2.456157439914292    8.350209656739661
       240                     0   -453.1439238075473    9.622913408561601    8.376522431893608    50.31524043529687   -21.90577297492639   -23.03178372054319    829.8841828361271    2.422136365502491    8.148687670822831
       250                     0   -453.1795270030755    9.622650790511962     8.37628104809856    50.36497119797095   -19.11400900477125   -20.33557908492172    741.9535066744538    2.383146565080256    7.935985736661148
       260                     0   -453.2170507880168    9.622394638596068    8.376043154002927    50.41470196064502    -16.4882211282515   -17.72063988595256    659.0585331332703     2.33843260299702    7.711499603452447
       270                     0   -453.2567096889138    9.622146890434015      8.3758100184232    50.46443272331909   -13.96410570544302   -15.27740364461742    582.0935377389849    2.287363619965294    7.474876368899197
       280                     0   -453.2986810080712    9.621911044961703    8.375583182380025    50.51416348599316   -11.54354002518831   -12.97961598351139    511.9516785367957    2.229135010531866    7.226029048900397
       290                     0   -453.3429880487496    9.621692134093612    8.375365573375801    50.56381963169449   -9.254959268881196   -10.84398927353151    449.6248838377322     2.16304893613031      6.9659256682419
       300                     0   -453.3859487008527    9.621509914318594    8.375175605569837    50.60963125862344   -7.287320882684226   -9.037767710663008    399.6953519755459    2.094530289514221     6.71702309528303
       310                     0   -453.4258688748595    9.621367307427143    8.375017098423841    50.65059477047146   -5.665538451766997   -7.569445193469871    361.5857886691585    2.027068417973134    6.489185903497525
       320                     0   -453.4631497482382    9.621257379187387    8.374884227688252    50.68786087222522   -4.318681551087872   -6.361555653747311     332.329627050081    1.960914530845977    6.279755507337766
       330                     0   -453.4981177532923    9.621174614857136    8.374772499713641    50.72229045848409   -3.192314458876234   -5.356208679435696    309.7153690438587    1.896252711485297    6.086462118074381
       340                     0   -453.5310421535071    9.621114610539344    8.374678411460824    50.75452891148375   -2.242982180964124   -4.510695442607196    292.0859082517019    1.833216163703626    5.907364599689329
       350                     0   -453.5621476075458    9.621073785291978     8.37459924312965    50.78506055375519    -1.44236788597949   -3.786660844494446    278.1950420377235    1.771898680044396    5.740799070362471
       360                     0   -453.5916234707707    9.621049203973188    8.374532874483368    50.81424891928354  -0.7598920712637872   -3.162823898747022    267.1037095174975    1.712362953590311    5.585345539461317
       370                     0   -453.6196307690697    9.621038512722009    8.374477581939789    50.84236671464497   -0.175456778096209   -2.618652616172139    258.1037642754694    1.654647131665463    5.439784792105248
       380                     0   -453.6463075065028    9.621039758640062    8.374431999858251    50.86961826249379    0.327254998449903   -2.138488356135037    250.6612724492051    1.598769812125181    5.303065467370596
       390                     0   -453.6717727859296    9.621051344991537    8.374395016992928    50.89615630476797   0.7641166853571435   -1.711981086788125    244.3718293118005    1.544728981727028    5.174274496764533
       400                     0   -453.6961300628174    9.621071926559534     8.37436573650538    50.92209467844023    1.139429685329151    -1.32495173571441    238.9351305803923    1.492518545634419     5.05262556162192
       410                     0   -453.7194697468422    9.621100221988698    8.374343554127458    50.94751814615726    1.462149033658037  -0.9694034039663459    234.1235992844161    1.442120933240244    4.937430497157876
       420                     0   -453.7418713078102    9.621135328149412    8.374327799179515     50.9724896681402    1.747498986633707  -0.6488551882370589    229.7716168562696    1.393508982574671    4.828095138928982
       430                     0   -453.7634049798467    9.621176451904402    8.374317930608992    50.99705598572255     1.99700590860889  -0.3540026642782327    225.7539564150748    1.346649393625288    4.724095271040478
       440                     0   -453.7841331282561     9.62122288561242    8.374313514990824    51.02125163021384    2.215464689501017 -0.08117346588482212    221.9784797833458    1.301504098716145    4.624970369602722
       450                     0   -453.8041113922519      9.6212740174541    8.374314180340303    51.04510208875632    2.406808191529916   0.1724845271185297    218.3780287522447    1.258031419043901    4.530314423238555
       460                     0   -453.8233896294917    9.621329310053715    8.374319607522686    51.06862619543731    2.574288984085676   0.4093515576965661    214.9042519679805    1.220620701809682    4.439768084365062
       470                     0   -453.8420127034267    9.621388296955061     8.37432951145173    51.09183793486805    2.721102489416968   0.6307992537286742    211.5228949204913    1.209151187893455    4.353012642453267
       480                     0   -453.8600211428523    9.621450573456155    8.374343633773007     51.1147477966581    2.849867384172279   0.8382084507383798    208.2102089017353     1.19737328970858    4.269764261978239
       490                     0   -453.8774516952943    9.621515784440694    8.374361738621857    51.13736378852295    2.962685197792118    1.032514527790251    204.9501754044438    1.185317248205769    4.189769251990227
       500                     0   -453.8943377942062    9.621583622553027    8.374383603296426    51.15969218776462    3.061899072336026    1.214391852372725    201.7325185981867    1.173011353688583    4.112799960391092
       510                     0   -453.9107099567287    9.621653816732881    8.374409022763547    51.18173810716812    3.148552268426552    1.385014307394919     198.551082171957    1.160482182471903    4.038651665434544
       520                     0   -453.9265961234822    9.621726118820156    8.374437809547629    51.20350589920282    3.223942470799954    1.545012653679265    195.4026157168467    1.147754777401266    3.967139643944904
       530                     0   -453.9420219493252    9.621800306797272    8.374469785875371     51.2249994488821    3.289256165573246    1.695079355681158    192.2859281455287    1.134852753422488    3.898096640921016
       540                     0   -453.9570110530162     9.62187618132657    8.374504786586042    51.24622239068076    3.345514602493825    1.835702069355636    189.2012590919453    1.121798411874223    3.831370718954934
       550                     0   -453.9715852333782    9.621953563139474      8.3745426529991    51.26717825440056    3.393636925765898    1.967287025614718    186.1497173852315    1.108612818678555    3.766823530153717
       560                     0   -453.9857646569421    9.622032290662728    8.374583233182381    51.28787056404908    3.434429062740096    2.090232164591427    183.1329561084197    1.095315880826521    3.704328726011567
       570                     0   -453.9995680214039    9.622112217863165    8.374626381392094    51.30830290296802    3.468604928501701    2.204903287068326     180.152911608759    1.081926410456655    3.643770612924817
       580                     0   -454.0130126986928    9.622193212296759    8.374671957484725    51.32847895305168     3.49677082733375    2.311634719208687    177.2116121264694    1.068462180445734    3.585042986703805
       590                     0   -454.0261148606664    9.622275153309124    8.374719826179334    51.34840251500105    3.519534615474079    2.410744166148453    174.3110606176328    1.054939976942665    3.528048120476496
       600                     0   -454.0388895896681    9.622357932277028    8.374769857428561    51.36807751664437    3.537405273520402    2.502557863456755    171.4531441813374    1.041375637946596    3.472695884636237
       610                     0    -454.051350976429    9.622441449796572    8.374821925465739    51.38750801017514    3.550811352967214    2.587329702116595    168.6395596064588    1.027784095140266    3.418902971645308
       620                     0   -454.0635122070514    9.622525614939963    8.374875908745912    51.40669816305237    3.560182669171982    2.665383206681772    165.8718070440432    1.014179416518779    3.366592221752277
       630                     0   -454.0753856402915     9.62261034496332    8.374931690233051    51.42565224721492    3.565863420280166    2.736968693050216      163.15115662899    1.000574841121825    3.315692030036816
       640                     0    -454.086982876638    9.622695563534434    8.374989156584615    51.44437462252026    3.568208511141638    2.802348896064433    160.4786399038899   0.9869828104926018    3.266135817165292
       650                     0   -454.0983148200965    9.622781201585555    8.375048198068916    51.46286972126678    3.567520232321945     2.86174478534776    157.8550640305973   0.9734150020941987    3.217861568851746
       660                     0   -454.1093917336104    9.622867195498886    8.375108708492066    51.48114203064842    3.564066695632753    2.915461022032039    155.2810190597901   0.9598823594701621    3.170811420761257
       670                     0   -454.1202232891102    9.622953486752849    8.375170586078585    51.49919607791982    3.558079895963571    2.963710436054043    152.7568878822043   0.9463951243359038    3.124931294430146
       680                     0   -454.1308186126339    9.623040021180264    8.375233732178266    51.51703641310816    3.549798686482326    3.006742661848524    150.2828551694323   0.9329628626025769    3.080170567559736
       690                     0   -454.1411863249473    9.623126749800738    8.375298051728784    51.53466759516691    3.539442708740571    3.044775681701535    147.8589444517452   0.9195944945147587    3.036481783555825
       700                     0   -454.1513345785106    9.623213627285759    8.375363452919427    51.55209417792395    3.527187124229359    3.078033492015277    145.4850104192207   0.9062983207336922    2.993820388415692
       710                     0    -454.161271091043    9.623300611833509    8.375429847270759    51.56932069706725    3.513202829694224    3.106734270675763     143.160766293068   0.8930820491424861     2.95214449605415
       720                     0   -454.1710031761156    9.623387664920058    8.375497149307714    51.58635165826175    3.497650245997733     3.13106913921425    140.8857918219275   0.8799528225309541    2.911414676946869
       730                     0    -454.180537769783    9.623474756910724    8.375565271775443    51.60319152700879    3.481272703212493    3.150636219819248     138.659562307477   0.8669172333158197    2.871593140925773
       740                     0   -454.1898814526041    9.623561868660341    8.375634123773464    51.61984471857513    3.463889176527803    3.166018175063903    136.4814782183751   0.8539813434776821    2.832644256462459
       750                     0   -454.1990404762818    9.623648974846637    8.375703625941197    51.63631559468333    3.445538849174707    3.177449575499407    134.3508583995798    0.841150734308399    2.794534770397995
       760                     0   -454.2080207836979    9.623736060478532    8.375773694270645    51.65260845370358    3.426846790687048    3.184604010352552    132.2669396502247   0.8284305051836997    2.757232423144541
       770                     0   -454.2168280264712    9.623823111292154    8.375844248944325    51.66872752399406    3.407110345120421    3.188462868255427    130.2288838344928   0.8158253080879261    2.720706970605516
       780                     0   -454.2254675848718    9.623910093789295     8.37591523113475    51.68467695631122    3.386012550759376    3.189600560656639    128.2357628971728   0.8033393873020711    2.684929454597397
       790                     0   -454.2339445850558    9.623996983063609    8.375986578975336    51.70046082051295    3.364289097811251    3.187577141701993    126.2866556977649   0.7909765693331079    2.649872703569106
       800                     0   -454.2422639141687     9.62408375853518    8.376058231285105    51.71608310600681    3.341681256978822    3.182850370990956    124.3806124877964    0.778740293895045    2.615510613431741
       810                     0   -454.2504302363687    9.624170400641884    8.376130130413873     51.7315477200822    3.318480022891272    3.175416568498279    122.5166824130901   0.7666336366013617    2.581819049509178
       820                     0   -454.2584480072074    9.624256893695426    8.376202218712081    51.74685848581696    3.294749598816196    3.165386285106337     120.693897996176   0.7546593249117945    2.548775093075495
       830                     0   -454.2663214857207    9.624343222504825    8.376274440739992    51.76201913985324    3.270517411318563    3.152910228670816    118.9112767034259   0.7428197592834853    2.516356927196676
       840                     0   -454.2740547457875    9.624429374478291    8.376346743365566    51.77703333108523    3.245910868516459     3.13812196862855    117.1678286254643    0.731117035147142    2.484543799289872
       850                     0   -454.2816516867657    9.624515337809747    8.376419075691869    51.79190461967166     3.22094130325306     3.12116115600169     115.462559205742   0.7195529567917831    2.453315927392776
       860                     0   -454.2891160432184    9.624601101406231    8.376491389045357     51.8066364764708    3.195651750395311    3.102154023617258    113.7944742109356   0.7081290551339054    2.422654452176123
       870                     0   -454.2964513940618    9.624686654996434    8.376563636875595    51.82123228283241    3.170070650858717    3.081232853198379    112.1625836171579   0.6968466037847793    2.392541381366911
       880                     0   -454.3036611711248    9.624771988967915    8.376635774834769    51.83569533086581    3.144261636208289    3.058523934002745    110.5659107531241   0.6857066346815162    2.362959543393719
       890                     0   -454.3107486670521    9.624857095075596     8.37670776066007     51.8500288251164    3.118248281239246    3.034138676268231    109.0034939521118   0.6747099536924981    2.333892547610635
       900                     0   -454.3177170427968    9.624941965433818    8.376779553953323    51.86423588283105    3.092058580966878    3.008188462552242    107.4743797365247   0.6638571538015096    2.305324732459377
       910                     0   -454.3245693345982    9.625026592499889    8.376851116142138    51.87831953459371    3.065710334510847    2.980778003825902     105.977625511128   0.6531486286140493    2.277241127300348
       920                     0   -454.3313084605027    9.625110969779238    8.376922410614347    51.89228272609763    3.039252798335655    2.952015924373427    104.5123191028062   0.6425845863725234    2.249627423357781
       930                     0   -454.3379372265062    9.625195091199842    8.376993402379611    51.90612831974519    3.012698769126248    2.921978801484735    103.0775559359988   0.6321650616470916    2.222469932004949
       940                     0   -454.3444583322429    9.625278951142317    8.377064057925105     51.9198590952731    2.986068774270975    2.890793899958408    101.6724557583663   0.6218899268584205    2.195755556624883
       950                     0   -454.3508743764901    9.625362544347475    8.377134346059215    51.93347775284685     2.95937013174546    2.858549475565323    100.2961629394224   0.6117589055257822    2.169471766096016
       960                     0   -454.3571878616723    9.625445856101548    8.377204245126647     51.9469869134268    2.931778881987174     2.82614865422614    98.94781261921545   0.6017715907925674    2.143606124629362
       970                     0   -454.3634011974095    9.625528862716422    8.377273743391255    51.96038912024675    2.903911573023025    2.793112122254937     97.6266013802925   0.5919274574123727    2.118146844872686
       980                     0   -454.3695167059806    9.625611560519248    8.377342813686974     51.9736868447258    2.876370182414591    2.758920299583362    96.33173694610382   0.5822258407239599    2.093082527436489
       990                     0   -454.3755366252582    9.625693952577418    8.377411424587766    51.98688248502428    2.848873103093547    2.723934382128041    95.06244253922522   0.5726659551841888     2.06840235001374
      1000                     0   -454.3814631147254    9.625776034542657    8.377479552302653    51.99997836818887    2.821344522074742    2.688283035985158     93.8179606889977   0.5632469185645944    2.044096270671333
      1010                     0   -454.3872982598057    9.625857801643155    8.377547174900752    52.01297675165765    2.793827608473012    2.652057753088338    92.59756743177051   0.5539677557049448    2.020154665175341
      1020                     0   -454.3930440753779    9.625939249979547     8.37761427181603    52.02587982730947    2.766305486278436    2.615304671588884     91.4005584393182   0.5448274071627588    1.996568310905631
      1030                     0   -454.3987025091675    9.626020374793791    8.377680823358247    52.03868972072357     2.73879891931345    2.578072297117142    90.22623348346134   0.5358247341880701    1.973328363595313
      1040                     0   -454.4042754448432    9.626101172891833    8.377746810919698    52.05140849448671    2.711317849621329    2.540432441154466    89.07393992716422   0.5269585280420445    1.950426345000715
      1050                     0   -454.4097647050463    9.626181640456172    8.377812217156768    52.06403815017586    2.683905191267385    2.502420865130489     87.9430343707059   0.5182275158307188    1.927854123518691
      1060                     0   -454.4151720541309    9.626261774848917    8.377877025234929    52.07658063028958    2.656547570430389    2.464093860677017    86.83289534312094   0.5096303668097314    1.905603909768389
      1070                     0   -454.4204992002904    9.626341576979319    8.377941216507407    52.08903781992765    2.629718023553913    2.425014175074196    85.74292248695889   0.5011656902182232    1.883667676404438
      1080                     0   -454.4257477929005    9.626421057782036    8.378004763443103    52.10141154684396    2.602621243867791    2.386029035200651     84.6725316558497    0.492831983458767     1.86203651449122
      1090                     0   -454.4309194237866    9.626500182697624    8.378067679202477    52.11370358849854    2.574631269169501    2.347787117844898    83.62117843810906    0.484627721366867    1.840701921660591
      1100                     0   -454.4360156333291    9.626578935577266    8.378129961981093    52.12591567544375    2.546576405291372    2.309525810196836    82.58834560802799    0.476551331906003      1.8196570763534
      1110                     0   -454.4410379155805    9.626657309513533    8.378191602607139    52.13804949063132    2.518484283921018    2.271239786159031    81.57351500353104   0.4686012096041175    1.798895565381863
      1120                     0   -454.4459877203845    9.626735297994383    8.378252591893597    52.15010666830192    2.490355668293787    2.232941620935736    80.57616891704969   0.4607757274280231    1.778411249347275
      1130                     0   -454.4508664555107    9.626812894563573    8.378312921402163    52.16208879432055    2.462233690644092    2.194675418612542    79.59581454561746   0.4530732412210682    1.758198251072979
      1140                     0   -454.4556754884546    9.626890094213104    8.378372583094968    52.17399740951686     2.43413346215282    2.156448435332467    78.63197959430182   0.4454920937608716    1.738250952158297
      1150                     0   -454.4604161483092    9.626966891806093    8.378431569250237    52.18583400972568    2.406056375923976    2.118274375056689     77.6841921972309   0.4380306165350254    1.718563972359817
      1160                     0   -454.4650897275026    9.627043282011957    8.378489872101529    52.19760004526923    2.378010062351712    2.080176169406342    76.75198610715725   0.4306871272239479    1.699132155430152
      1170                     0   -454.4696974833921    9.627119260647577     8.37854748515292    52.20929692399687    2.350031765433837    2.042188326946668    75.83493579442391   0.4234599484592058     1.67995057557757
      1180                     0   -454.4742406398741    9.627194823426157    8.378604401918505    52.22092601257607    2.322112016647225    2.004314748422548    74.93260839755607   0.4163473959432548    1.661014512609174
      1190                     0   -454.4787203887957    9.627269966568727     8.37866061630711    52.23248863695808    2.294275468443275    1.966575538525448    74.04459458723571   0.4093477844203309    1.642319446954906
      1200                     0   -454.4831378913367    9.627344686439461    8.378716122487393    52.24398608372018    2.266524116852343    1.928981678683289    73.17049117611387   0.4024594301232263    1.623861049860951
      1210                     0   -454.4874942793483    9.627418979638566    8.378770915056716    52.25541960101545    2.238868676516154    1.891553681675799    72.30991177210132   0.3956806531410485    1.605635175147172
      1220                     0   -454.4917906566178     9.62749284298852    8.378824988933825    52.26679039994274    2.211307712913924    1.854302993333707    71.46247964841723   0.3890097791730682    1.587637850419704
      1230                     0   -454.4960280999518    9.627566271721768    8.378878340474825    52.27809965469692    2.183756975246876    1.817347059691717    70.62782391567478   0.3824451423083341    1.569865183575041
      1240                     0   -454.5002076599687    9.627639260632538    8.378930967750671    52.28934850442735    2.156297798950713    1.780626643005806    69.80559952509869   0.3759850886002024    1.552313456910255
      1250                     0   -454.5043303624737    9.627711806518683    8.378982867144366     52.3005380545411    2.128952397851466    1.744139528124488    68.99546656608966   0.3696279718087046    1.534979181727423
      1260                     0   -454.5083972096066    9.627783906566572     8.37903403527449    52.31166937774611    2.101729818547646    1.707881197833063    68.19709712727895   0.3633721574748259    1.517859012256258
      1270                     0   -454.5124091807677    9.627855558025603    8.379084468752938    52.32274351460334    2.074594937528717    1.671907233025502    67.41017020945439   0.3572160235325512    1.500949718173593
      1280                     0   -454.5163672332528    9.627926754815029    8.379134167660665    52.33376147367842    2.047430893626323    1.636361532148496    66.63437333477152   0.3524185055332725    1.484248041645309
      1290                     0     -454.52027230255     9.62799748957463    8.379183134043375      52.344724233317     2.02032924202067    1.601170553441431    65.86941508527187   0.3477571157288574    1.467750838465144
      1300                     0    -454.524125303714    9.628067758809616    8.379231366791824    52.35563274333853    1.993354915757056    1.566273758615781    65.11500965432441   0.3431558219097476    1.451455262289817
      1310                     0   -454.5279271323163    9.628137558373648    8.379278865344476    52.36648792503686    1.966391773782453    1.531785726517846    64.37087435674863   0.3386135759225271    1.435358471685725
      1320                     0   -454.5316786643786    9.628206881440324    8.379325631818523    52.37729067056664    1.939508785096224    1.497661685374995    63.63673994435981   0.3341293725266397    1.419457668229765
      1330                     0   -454.5353807576073     9.62827572467036    8.379371665855901    52.38804184530935    1.912767797980192    1.463866089681526    62.91235292590108   0.3297022117000233     1.40375032511332
      1340                     0    -454.539034252437    9.628344085608576    8.379416966855379    52.39874229021743    1.886169597626498    1.430394806347294    62.19746765186797   0.3253311113259128    1.388234014884589
      1350                     0   -454.5426399726878    9.628411961887096      8.3794615341564    52.40939282162103    1.859724042682442    1.397247618710189    61.49184268633793    0.321015111406118    1.372906402550595
      1360                     0   -454.5461987261667    9.628479351449432    8.379505367095966    52.41999423189888    1.833439074938275    1.364422122390779    60.79524454388486    0.316753273155086    1.357765241119395
      1370                     0   -454.5497113052732    9.628546252514681    8.379548464983834    52.43054729015832    1.807325588861692    1.331922868331078    60.10744822529429   0.3125446783581652     1.34280836663719
      1380                     0    -454.553178487504    9.628612663648848    8.379590827274409    52.44105274329011    1.781389863284362    1.299748251712321    59.42823737370366   0.3083884295437063    1.328033694322175
      1390                     0   -454.5566010359709    9.628678583647947    8.379632453221399    52.45151131633649     1.75563955359129    1.267890948870305    58.75739897803487   0.3042836484032393    1.313439213494308
      1400                     0   -454.5599796999081    9.628744011537471    8.379673342356856     52.4619237132808    1.730079321691707    1.236366310965576    58.09473341339406   0.3002294766233653     1.29902298408875
      1410                     0   -454.5633152151426    9.628808946534777      8.3797134941446    52.47229061813705    1.704714440904119    1.205153835692099    57.44004220511335   0.2962250748409125    1.284783132406899
      1420                     0   -454.5666083045033    9.628873388085454    8.379752907818116    52.48261269444674    1.679552447161369    1.174279989598246     56.7931339681061   0.2922696218344715    1.270717845698826
      1430                     0   -454.5698596782927    9.628937335854379    8.379791583322476    52.49289058737221    1.654595961578322    1.143734549936028    56.15383027209224   0.2883623156132281    1.256825372801397
      1440                     0   -454.5730700346291    9.629000789657523    8.379829520278616    52.50312492380849    1.629849419003394    1.113516744275659    55.52195287110541   0.2845023716456256    1.243104016737989
      1450                     0   -454.5762400598622    9.629063749425253    8.379866718345575    52.51331631261664     1.60531303159762    1.083627386659162    54.89732983813182   0.2806890229846273    1.229552132512596
      1460                     0   -454.5793704289302    9.629126215284964    8.379903177234704    52.52346534525388    1.580997006913499     1.05406672915242    54.27979500572135   0.2769215199248962    1.216168123393693
      1470                     0   -454.5824618056746    9.629188187612668    8.379938896692266    52.53357259628399    1.556900985141914    1.024835376780556    53.66918775834041   0.2731991295675041     1.20295043810746
      1480                     0   -454.5855148431992    9.629249666563405    8.379973876530819     52.5436386236473    1.533015109505847   0.9959350502032175    53.06534777448147   0.2695211358095815    1.189897567397457
      1490                     0   -454.5885301841692    9.629310652782083    8.380008116617701    52.55366396925512    1.509366434737926   0.9673642705728279    52.46813127254131   0.2658868384938438    1.177008041658423
      1500                     0     -454.59150846109    9.629371147176053    8.380041616825585     52.5636491606828    1.485944914411753    0.939124089380619    51.87739448443907   0.2622955532223581    1.164280428932651
      1510                     0   -454.5944502965767    9.629431150488024    8.380074377073793    52.57359471054436    1.462747403584727   0.9112137499848043     51.2929943701654   0.2587466116267955    1.151713331023285
      1520                     0   -454.5973563036685    9.629490663577599    8.380106397377288    52.58350111673886    1.439775281621852   0.8836460725920107     50.7147975974267   0.2552393606922205    1.139305380349887
      1530                     0   -454.6002270860182    9.629549686253453      8.3801376789693    52.59336886403864    1.416989011713111   0.8564559092897476    50.14267538995679   0.2533948999838586    1.127055228363758
      1540                     0   -454.6030632381696    9.629608218453155    8.380168222893706     52.6031984239085    1.394423828181408   0.8296050630488931    49.57650040773853   0.2528716067492913    1.114961562693279
      1550                     0   -454.6058653457789    9.629666261007531    8.380198029459983    52.61299025459979    1.372084516174202   0.8030853551357324    49.01614735308972   0.2523590115992885    1.103023099042469
      1560                     0   -454.6086339859577    9.629723816220391    8.380227098958454    52.62274481169722    1.350088973385197   0.7769005365769069    48.46174900756895    0.251857125879403    1.091238728851827
      1570                     0   -454.6113697282458    9.629780890693491    8.380255431294295    52.63246262426539    1.328385055252695   0.7510313867029055    47.91357394469143   0.2513661596592728    1.079607608530942
      1580                     0   -454.6140731343069    9.629837486391626     8.38028302632156    52.64214421338547    1.306913831520866   0.7254871026153488    47.37126061368718   0.2508859660385009     1.06812857775963
      1590                     0   -454.6167447576606    9.629893604797109    8.380309884124221    52.65179004594205     1.28567711749225   0.7002698126162972    46.83453360967135   0.2504163862251947    1.056800451044857
      1600                     0   -454.6193851439388    9.629949247536379     8.38033600499193    52.66140055204536    1.264679647797565   0.6754103052739537    46.30323687935252   0.2499572915085638    1.045622067112541
      1610                     0   -454.6219948318314    9.630004416521523    8.380361392237466    52.67097618654375    1.243916523591005   0.6509727388218217    45.77768753110974     0.24950886774748    1.034592585889038
      1620                     0    -454.624574353755    9.630059113184062    8.380386047787605    52.68051744072805    1.223380176515165   0.6268632726648304     45.2576497696416   0.2490710484241727    1.023710974571585
      1630                     0   -454.6271242346996    9.630113339066071    8.380409972034517    52.69002475136723      1.2030792051647   0.6030770019939169    44.74282276574916   0.2486436632494868    1.012976085465511
      1640                     0   -454.6296449923635    9.630167096294358    8.380433165085144    52.69949851230241    1.183019553316369   0.5796098549192165    44.23299402393315    0.248226546054821    1.002386755648721
      1650                     0   -454.6321371372414    9.630220386868338    8.380455627284437    52.70893908840192    1.163184842477966    0.556469207204214    43.72800307852345   0.2478195339353004   0.9919418215561445
      1660                     0   -454.6346011728458    9.630273212373359    8.380477359168484    52.71834682320721    1.143584995085672   0.5336546211249568     43.2277216134049   0.2474224667388342   0.9816401178627582
      1670                     0   -454.6370375958315    9.630325574887657    8.380498361273744    52.72772204541066    1.124228471880663   0.5111653862578334    42.73205004838257   0.2470351867738784   0.9714804809349048
      1680                     0   -454.6394468961107    9.630377476851786    8.380518634139628     52.7370650729971    1.105086363206226   0.4890009623945148    42.24089855064712   0.2466575384861638   0.9614617502047575
      1690                     0   -454.6418295570451    9.630428919877495    8.380538178420679    52.74637621291816    1.086200426171789   0.4671595608113004    41.75418556422069   0.2462893682503411   0.9515827638576758
      1700                     0   -454.6441860555124    9.630479907165244     8.38055699465581    52.75565576605829    1.067550165365113   0.4456394860963554    41.27184653246707   0.2459305243637543     0.94184236915933
      1710                     0    -454.646516862075    9.630530441111244    8.380575083451246    52.76490402629888    1.049133430054998   0.4244405002604819    40.79380932598662   0.2455808567214743   0.9322394104653318
      1720                     0   -454.6488224410779    9.630580523457322    8.380592446015012    52.77412128072817    1.030906130897487   0.4035951271945299    40.32000880133851   0.2452402167883595   0.9227726892113961
      1730                     0   -454.6511032505673    9.630630154766326    8.380609084197516    52.78330781033294    1.012897307958931   0.3830863398453346    39.85038141209432   0.2449084573950258   0.9134409900165515
      1740                     0   -454.6533597425774    9.630679337267878    8.380624999198954    52.79246389122095   0.9951103562733498   0.3628944449532462    39.38487087485513   0.2445854329929606   0.9042431565865505
      1750                     0   -454.6555923633134    9.630728072933577    8.380640191479861    52.80158979302952   0.9775467046620933    0.343019491481245    38.92340786914424   0.2442709992786771   0.8951780289918894
      1760                     0   -454.6578015532422    9.630776364353666    8.380654662122161    52.81068578005825   0.9602141250757581   0.3234692686045524    38.46594825521413   0.2439650134356509   0.8862444485007507
      1770                     0   -454.6599877472514    9.630824214051533    8.380668411841203    52.81975211333297   0.9431064680028904   0.3042296529378104    38.01243276912284   0.2436673336983964   0.8774412509020924
      1780                     0   -454.6621513747231    9.630871624671352    8.380681441696396    52.82878904955927   0.9262251360498206   0.2853097265971065    37.56281695595522    0.243377819477393   0.8687672722989204
      1790                     0   -454.6642928596946    9.630918598849215    8.380693752522346    52.83779684184126   0.9095682878933405   0.2667016555648963    37.11704812831976   0.2430963311480699   0.8602213430158167
      1800                     0   -454.6664126209029    9.630965139285346    8.380705345111414    52.84677573902985   0.8931352239213658   0.2484038111758308    36.67507663052458   0.2428227300637714   0.8518022882895631
      1810                     0   -454.6685110719146    9.631011249005711    8.380716219655449    52.85572598559823   0.8769583013041373   0.2303693350324597    36.23684935601386   0.2425568784291148   0.8435089057110078
      1820                     0   -454.6705886210504    9.631056933465414     8.38072637440105    52.86464782215584   0.8610381165743833   0.2126056165144097    35.80232638949508   0.2422986392123216    0.835339960228899
      1830                     0   -454.6726456715575    9.631102196877896    8.380735809319878    52.87354148786973   0.8453575320906351    0.195138443277124     35.3714740170652   0.2420478762321579   0.8272942621370661
      1840                     0   -454.6746826218267    9.631147042808355    8.380744524682616    52.88240721995756    0.829903632093278   0.1779668664386771    34.94424790956869    0.241804453962257   0.8193706156303077
      1850                     0   -454.6766998654934    9.631191474633292    8.380752520852177    52.89124525243534   0.8146729496457344   0.1610917954456459     34.5206056647613   0.2415682375272333   0.8115678178832535
      1860                     0   -454.6786977915546     9.63123549567243    8.380759798286324    52.90005581665461   0.7996623269352217   0.1445137210670674    34.10050718263332   0.2413390926332414   0.8038846592629645
      1870                     0   -454.6806767844623    9.631279109201706    8.380766357522694    52.90883914172868   0.7848688613955143    0.128232785864919     33.6839142255287   0.2411168854943439   0.7963199230533169
      1880                     0   -454.6826372242278     9.63132231846412    8.380772199165992    52.91759545488293   0.7702898580166325   0.1122488321835754    33.27079015646164   0.2409014827646052   0.7888723852104248
      1890                     0   -454.6845794865267    9.631365126678709    8.380777323876918    52.92632498176116   0.7559227946647599  0.09656144979821089    32.86109977236533   0.2406927514736674   0.7815408141624044
      1900                     0   -454.6865039427951    9.631407537047936    8.380781732362463    52.93502794670675   0.7417652867880717  0.08117000923276232    32.45480919349264   0.2404905589647121   0.7743239706575907
      1910                     0   -454.6884109603236    9.631449552763765    8.380785425367415    52.94370457302832   0.7278150622465125  0.06607369194724197    32.05188577847893   0.2402947728341731   0.7672206076638298
      1920                     0    -454.690300902384    9.631491177012578      8.3807884036668    52.95235508325551   0.7140699393544351  0.05127151746441028    31.65229805807386   0.2401052608725035   0.7602294703157642
      1930                     0   -454.6921741282929    9.631532412979166    8.380790668059111    52.96097969938829   0.7005278073277643  0.03676236032829337    31.25601567740035   0.2399218910058053   0.7533492959091562
      1940                     0   -454.6940309935461     9.63157326375957    8.380792219337728     52.9695786430575    0.687180298441991  0.02254323739296819     30.8630074464814   0.2397445312249017   0.7465788136167112
      1950                     0   -454.6958718499188    9.631613732334031    8.380793058294488    52.97815213521693   0.6740376740688534 0.008616556928736457    30.47324527671337   0.2395730495561355     0.73991674480151
      1960                     0   -454.6976970455577     9.63165382189054    8.380793185855552    52.98670039750095   0.6610840405195668 -0.005020269528699387    30.08670019407193   0.2394073140225554   0.7333618030798912
      1970                     0   -454.6995069250662    9.631693535730887    8.380792602870706    52.99522365174185   0.6483334837356057 -0.01837041930750302    29.70335117372004    0.239247192555492    0.726912695043336
      1980                     0    -454.701301829636    9.631732877258774    8.380791310148352    53.00372212170762   0.6357760558128936  -0.0314349181647452    29.32317289386398   0.2390925528771731   0.7205681208403731
      1990                     0   -454.7030820971393     9.63177184958783    8.380789308515576    53.01219603157848   0.6234065317244155  -0.0442151033181612    28.94613829497487   0.2389432616930021    0.714326773237229
      2000                     0   -454.7048480622211    9.631810455967722    8.380786598792177     53.0206456062141   0.6112295535291312 -0.05671324305698625    28.57222440617943   0.2387991866639692   0.7081873378318354
      2010                     0    -454.706600056447    9.631848699734427    8.380783181765942    53.02907107222562   0.5992399643578232 -0.06893099309354339    28.20140808356228   0.2386601951210797   0.7021484939065643
      2020                     0   -454.7083384083943    9.631886583865375    8.380779058028844    53.03747265621034   0.5874240061770079 -0.08087890581944907    27.83364075053431   0.2385261535936087   0.6962089107434678
      2030                     0   -454.7100634438003    9.631924111425642    8.380774228240286    53.04585057882074   0.5758036427291277 -0.09254056302938585    27.46891859408833    0.238396928506486   0.6903672497069619
      2040                     0    -454.711775485623    9.631961286169691    8.380768693444505    53.05420507551847   0.5643648366271545    -0.10392789806201    27.10724389597043    0.238272385414645   0.6846221780048194
      2050                     0   -454.7134748541513    9.631998111375959    8.380762454323628    53.06253638377855   0.5531057396431353  -0.1150428095374884     26.7485877017841    0.238152389185935   0.6789723540534676
      2060                     0   -454.7151618671411    9.632034590334198    8.380755511529783    53.07084474174484    0.542024458676334  -0.1258873013808381    26.39292602589114   0.2380369101509768   0.6734164304557878
      2070                     0   -454.7168368399623    9.632070726343189     8.38074786567846    53.07913038939751    0.531117147806871  -0.1364634511118217    26.04023724457371   0.2379257062406275   0.6679530549032562
      2080                     0   -454.7185000856945    9.632106522225493    8.380739517199361    53.08739356790485   0.5203799803305971  -0.1467760456406479    25.69049354186221   0.2378186398710177   0.6625808696727986
      2090                     0   -454.7201519152766    9.632141981718792    8.380730466708007    53.09563452228815   0.5098195070725053  -0.1568265867915268    25.34368661677374    0.237715573201305   0.6572985147927556
      2100                     0   -454.7217926375907    9.632177108145319    8.380720714489451    53.10385350105328    0.499430572010885  -0.1666107186645133    24.99979497153025   0.2376163673868825   0.6521046266549478
      2110                     0   -454.7234225596304    9.632211904899917    8.380710261198406    53.11205075719882    0.489209733124192  -0.1761353171589692    24.65880481235627   0.2375208826214787   0.6469978402364229
      2120                     0   -454.7250419866356    9.632246375307547    8.380699107190029    53.12022654757965   0.4791550734910529  -0.1854026847688116    24.32069692816014   0.2374289779970867   0.6419767879522309
      2130                     0    -454.726651222201    9.632280522698299    8.380687252752946    53.12838113269134   0.4692646583998775  -0.1944151596168857    23.98545347007128   0.2373405114836361   0.6370401002739778
      2140                     0   -454.7282505684628    9.632314350405963    8.380674698103634    53.13651477713543   0.4595365462328836  -0.2031751170267337    23.65305736298781      0.2372553398378   0.6321864063219034
      2150                     0   -454.7298403262043    9.632347861766915    8.380661443380861    53.14462774996097   0.4499687851536472  -0.2116849698032084    23.32349202224906   0.2371733185139817   0.6274143343871337
      2160                     0   -454.7314207950315    9.632381060119041    8.380647488639978    53.15272032495147   0.4405594186261067  -0.2199471602764977    22.99674121519508   0.2370943015740043   0.6227225124197052
      2170                     0   -454.7329922735117    9.632413948800702    8.380632833847072    53.16079278088995   0.4313064877449236  -0.2279641626616906    22.67278898592265   0.2370181415942263    0.618109568498597
      2180                     0    -454.734555059338    9.632446531122708    8.380617478780175    53.16884540166442    0.422206952201542  -0.2357435596914181    22.35161664080175    0.236944689561554   0.6135741304071947
      2190                     0   -454.7361094494674    9.632478810405123    8.380601423048191    53.17687847533857   0.4132613126807861  -0.2432778709742953    22.03321004607654   0.2368737948284338   0.6091148264545896
      2200                     0    -454.737655740353    9.632510790044149    8.380584666457695      53.184892297866   0.4044661427204277  -0.2505764077310479    21.71755809034698    0.236805304919176   0.6047302898857569
      2210                     0   -454.7391942280281    9.632542473373668    8.380567208614259    53.19288717126789   0.3958195153416227    -0.25763812740805    21.40464386629847    0.236739065441257    0.600419153834685
      2220                     0   -454.7407252083529    9.632573863713061    8.380549048973078    53.20086340344803   0.3873194035148147  -0.2644674133585213    21.09445171743437   0.2366749199968317    0.596180053741553
      2230                     0   -454.7422489771873    9.632604964377524    8.380530186829432    53.20882130877219   0.3789638540183222  -0.2710669285579136    20.78696648871159   0.2366127100512257   0.5920116277426548
      2240                     0   -454.7437658305393    9.632635778676709    8.380510621339072     53.2167612084359   0.3707509059219098  -0.2774393611300109    20.48217324872778   0.2365522748039889   0.5879125170343915
      2250                     0   -454.7452760648104    9.632666309913215    8.380490351509858    53.22468343079245   0.3626785955313885  -0.2835874235175834    20.18005719669832   0.2364934510511734   0.5838813662497951
      2260                     0    -454.746779976959    9.632696561381204    8.380469376192901    53.23258831167268   0.3547449567059492  -0.2895138497441733    19.88060361897346   0.2364360730405476    0.579916823803394
      2270                     0   -454.7482778647429    9.632726536365061    8.380447694073222    53.24047619470877   0.3469480220319142  -0.2952214018947086    19.58379786293731   0.2363799723187401   0.5760175422095443
      2280                     0   -454.7497700269273    9.632756237730961    8.380425303690808     53.2483474309947    0.339279614650595  -0.3007120881094137    19.28962100056074   0.2363249775659118   0.5721821763917819
      2290                     0   -454.7512567635221    9.632785669003011     8.38040220337472    53.25620238033289   0.3317499898080984  -0.3059899733931331    18.99806501987531    0.236270914476054   0.5684093888577809
      2300                     0   -454.7527383759715    9.632814833559522     8.38037839114328    53.26404141254329   0.3243515944295928  -0.3110604470883615    18.70911323269858   0.2362176054583338   0.5646978465203387
      2310                     0   -454.7542151674515    9.632843734368233    8.380353864867059    53.27186490535039   0.3170750813442966  -0.3159199566083912    18.42274802058298   0.2361648695331234   0.5610462198801373
      2320                     0   -454.7556874430813    9.632872374396234    8.380328622417606    53.27967324571064   0.3099297902087829  -0.3205745937094319    18.13895766725235   0.2361125221286875   0.5574531874022284
      2330                     0   -454.7571555102263    9.632900757314284    8.380302661225928    53.28746683241688   0.3029116927573592  -0.3250278589056371    17.85773062163423   0.2360603748153663   0.5539174308682062
      2340                     0   -454.7586196787291    9.632928886364397    8.380275977949251    53.29524607173222   0.2960182794780617  -0.3292961356868838    17.57902534934967   0.2360082351346031   0.5504376339331605
      2350                     0   -454.7600802611503    9.632956764575782    8.380248569423086    53.30301137219429   0.2892411004449661  -0.3333559360994897    17.30285187232147   0.2359559061756301   0.5470124864797685
      2360                     0   -454.7615375732472     9.63298439511588    8.380220432873074    53.31076317007604   0.2825871022349351   -0.337221845447581    17.02920854614194   0.2359031863725898   0.5436406926308625
      2370                     0   -454.7629919341909     9.63301178115827    8.380191564599761    53.31850191207559   0.2760483945950353  -0.3409009186243676    16.75806995986241   0.2358498697176253   0.5403209580914027
      2380                     0   -454.7644436669115    9.633038925766865    8.380161960568419    53.32622805359408   0.2696268644854231  -0.3443922357260264    16.48942002906142   0.2357957447165987   0.5370519928310993
      2390                     0   -454.7658930983851    9.633065832105455    8.380131616549493     53.3339420635055   0.2633184451990335  -0.3476972717449475     16.2232445209677   0.2357405943767689   0.5338325133798927
      2400                     0   -454.7673405600584    9.633092503177819    8.380100528064586    53.34164442437527   0.2571212480085917  -0.3508214721603861    15.95952823503122   0.2356841958245031   0.5306612407559862
      2410                     0   -454.7687863882075    9.633118941943286    8.380068690072093    53.34933563249119   0.2510323696454088  -0.3537700840088195     15.6982539912021   0.2356263199535563   0.5275369005068675
      2420                     0   -454.7702309243608    9.633145151271831    8.380036097017886     53.3570161976447   0.2450518767947976  -0.3565422274752214    15.43940626090681   0.2355667310366494   0.5244582220052563
      2430                     0   -454.7716745156499    9.633171134212718    8.380002743272733    53.36468664685026     0.23917664230533  -0.3591424478246855    15.18297340269273   0.2355051862723714   0.5214239410597963
      2440                     0   -454.7731175153666    9.633196893513151    8.379968622578186    53.37234752361245   0.2334052594810832  -0.3615743794948375    14.92893914756494   0.2354414352710305   0.5184327970226223
      2450                     0   -454.7745602833123    9.633222432154387    8.379933728120248     53.3799993880527    0.227736557606301  -0.3638413562742636    14.67728720468096   0.2353752191325714   0.5154835317332536
      2460                     0   -454.7760031863698    9.633247752911604    8.379898052750557    53.38764281841165   0.2221658245833549  -0.3659438124602964     14.4280032095602   0.2353062713772933   0.5125748900758496
      2470                     0   -454.7774465989972    9.633272858181412    8.379861589006214    53.39527841192561   0.2166906984494913  -0.3678848421177007     14.1810714059896   0.2352343157412296      0.5097056165336
      2480                     0    -454.778890903754    9.633297750503273    8.379824328681368    53.40290678588885   0.2113112039913453  -0.3696695703438744    13.93647694966749   0.2351590661645333   0.5068744610437375
      2490                     0   -454.7803364919444    9.633322432462457    8.379786262878635    53.41052857894307   0.2060259459362345  -0.3713016759844523    13.69420470292481   0.2350802261188656   0.5040801749862626
      2500                     0   -454.7817837642517    9.633346904751976    8.379747382038266    53.41814443951734   0.2008081490727457  -0.3727842588241636    13.45417545127323   0.2349974522095026   0.5013214663621384
      2510                     0   -454.7832331315215    9.633371170452897    8.379707676000345    53.42575503572799   0.1957014778980724  -0.3741206199026033    13.21646627489981   0.2349104460081276   0.4985971038480633
      2520                     0   -454.7846850151785    9.633395232514426     8.37966713364921    53.43336109457675   0.1906796814731385  -0.3753152287346306    12.98104837238208   0.2348188860378072   0.4959058550606255
      2530                     0   -454.7861398480969    9.633419093518627    8.379625743199638     53.4409633576325   0.1857552985586501  -0.3763697623018692    12.74789868502683    0.234722427585348   0.4932464697320251
      2540                     0   -454.7875980753724    9.633442756305875    8.379583491911681    53.44856259271196   0.1809141443648765  -0.3772905560103787    12.51699676835438   0.2346207111017437   0.4906176940163359
      2550                     0   -454.7890601552249    9.633466223273196    8.379540366013153    53.45615959403418    0.176160576015634   -0.378080553044172    12.28832439935018   0.2345133592876864    0.488018265029259
      2560                     0   -454.7905265599181    9.633489496840713    8.379496350973252    53.46375518719034   0.1714890619574174  -0.3787405857568849    12.06186806810068    0.234399977739634   0.4854469135009204
      2570                     0   -454.7919977767468    9.633512578614177    8.379451431314308     53.4713502286264   0.1668959813989093  -0.3792708919199101    11.83758970367929   0.2342801537244495   0.4829023564336474
      2580                     0   -454.7934743092072     9.63353547081444     8.37940559043955    53.47894560481988   0.1623934031219288  -0.3796737481572312    11.61550402661793   0.2341534548282943   0.4803833056557691
      2590                     0   -454.7949566778567    9.633558175658843    8.379358810226341    53.48654225767743   0.1580046587283736  -0.3799257868409586    11.39559275134444   0.2340194256567617    0.477888467477521
      2600                     0    -454.796445421689    9.633580693432185    8.379311070024546    53.49414116167346   0.1539685076822494  -0.3797962067128141    11.17784283428128   0.2338775873116774   0.4754165288722307
      2610                     0   -454.7979410994347     9.63360300991039    8.379262336041586     53.5017433333043   0.1527594228346413  -0.3769122737373692    10.96232344295374   0.2337274429152252   0.4729661839013822
      2620                     0   -454.7994442915635    9.633624894072447    8.379212391961362    53.50934980060883   0.1898638631086333  -0.3372242732541557    10.75020517195004   0.2335684981127157   0.4705363573336501
      2630                     0   -454.8009556111108    9.633641712051849    8.379157339771183    53.51696091137485      0.9719672022468    0.417637383283623    10.56518617944774   0.2334009047086763   0.4681311839075871
      2640                     0   -454.8024751007762    9.633542819579359    8.379004769694054    53.52456032521797    19.36439842805352    18.07569857369343    10.97540105365782   0.2332436810518826    0.465905075046889
      2650                     0   -454.8040034221647    9.633502083442673    8.378899853059073     53.5321767332452    28.86120847422942    27.19310540474804     11.0890771309935   0.2330679735728275    0.463633331146537
      2660                     0   -454.8055425158318    9.633515125114776    8.378838882391157    53.53981079867425    30.13263744182182    28.41531958353602    10.92785588476101   0.2328718370595161   0.4612887756796077
      2670                     0   -454.8070923542003    9.633528189827361    8.378776941436097    53.54745535089738    31.37359782458565    29.60817007400261    10.76772995044299   0.2326639764413788    0.458957453521488
      2680                     0     -454.80865368054    9.633541403756224    8.378714100195864    53.55511181149392    32.56502719102821    30.75341275482913    10.60802840720964   0.2324436017960594   0.4566375529067776
      2690                     0   -454.8102285477202    9.633626359364087    8.378710084065133    53.56279306394345    22.80187196648314    21.38766810438928    10.07972000887246   0.2321927941065945   0.4541975241477132
      2700                     0   -454.8118140348458    9.633571095163061    8.378587927721654    53.57046701374881    34.37081986238528    32.48904205720561    10.27538497025902   0.2319614037441431    0.452020069236818
      2710                     0   -454.8134145627026    9.633581633761874     8.37851955845181    53.57816806518556     35.8899128550508    33.94764012551277    10.13305130236647   0.2316993623277398   0.4497307678251469
      2720                     0   -454.8150299774975    9.633595028828097    8.378452389428709    53.58588800142764    36.94746365025841    34.96314675251821    9.977130856441768   0.2314206496736705   0.4474409342051001
      2730                     0   -454.8166611628354    9.633608514651101    8.378384062694938     53.5936282603017    37.96475086741712    35.93986179010766    9.821866229902382   0.2311249380443981    0.445154138416098
      2740                     0   -454.8183091117555    9.633621970831612    8.378314427189464     53.6013908117184     38.9600931207315    36.89514415396174    9.667878062293676   0.2308111636044627   0.4428687362281163
      2750                     0   -454.8199748760581    9.633635393239278    8.378243425309574    53.60917779458959    39.93398712986811    37.82938803237885    9.515169823226817   0.2304781503751195   0.4405827812318049
      2760                     0   -454.8216595686088     9.63364876564987    8.378170985696567    53.61699146320278    40.88856271862574    38.74453812161452    9.363764808833793   0.2301246387711843   0.4382942428884253
      2770                     0   -454.8233643689262    9.633662076834941    8.378097030115946    53.62483425027556    41.82544850240399    39.64275050591873     9.21373693317863    0.229749262041966   0.4360009943912727
      2780                     0    -454.825090529494    9.633675313365773    8.378021477952805    53.63270872994132    42.74644317288248    40.52560532665689     9.06510763911537   0.2293505227214998   0.4337007512912484
      2790                     0   -454.8268393823419     9.63368846490804    8.377944245428719    53.64061772255124      43.653100037987    41.39441761249182    8.917948094777467   0.2289268829324823   0.4313912058768367
      2800                     0   -454.8286123470782    9.633701519588337    8.377865241413376    53.64856423589428    44.54689060743298    42.25046785780296    8.772269601131946   0.2284766313215052   0.4290698571371095
      2810                     0   -454.8304109404073    9.633714463726154    8.377784367314744    53.65655147325519    45.42904959225589    43.09504252277294    8.628029408141298   0.2279978604773767   0.4267339744409955
      2820                     0   -454.8322367869283    9.633727289588272    8.377701517547838    53.66458290617158    46.30052479122546    43.92920459443765    8.485358275779133    0.227488579435931   0.4243807411517017
      2830                     0   -454.8340916290427    9.633739985923629    8.377616576547654    53.67266232657641    47.16241879921809    44.75388872814655    8.344157786077245   0.2269465590382232   0.4220070791170065
      2840                     0   -454.8359773418602    9.633752545241011    8.377529421452651    53.68079392821124    48.01554547921937    45.56982861638248    8.204861357390167   0.2263696696529065   0.4196100282001966
      2850                     0   -454.8378959473841    9.633764958210902    8.377439916400181    53.68898269712109    48.86071892910559    46.37778547328102    8.067340795991331   0.2257556648281135   0.4171865810902961
      2860                     0    -454.839849631283    9.633777214539318    8.377347913421707    53.69723364269287    49.69864758760525    47.17840220564596    7.931360249108597    0.225101600409866   0.4147328829513437
      2870                     0   -454.8418407633616     9.63378930445751    8.377253250575254    53.70555210841497    50.52989172885773      47.972227702881    7.796888110457598    0.224404243053688   0.4122447241539494
      2880                     0   -454.8437787793279    9.633498416498977    8.376907614532527    53.71357588764358    97.23841413442366    92.68968868651153    9.258694777355258     0.22386264039354    0.410740534112061
      2890                     0   -454.8458033047082    9.634803597186133    8.377891621052132    53.72206154817273   -98.31613815093009   -95.17174013832887    2.314865578716795   0.2223239982924507   0.4062353411444667
      2900                     0   -454.8479017965505    9.634098311025571    8.376974098748171    53.73030765688008    14.43537986951523    44.58345258461159    6.616330322292608   0.2219820972816466   0.4043405970671803
      2910                     0   -454.8499530315168    9.633687395425353    8.376980200486477     53.7385008998091    72.34667336175417    33.33177307098642    7.325413078968749   0.2212451162795713   0.4025750974148797
      2920                     0   -454.8519760800141     9.63373804968359    8.376491290893794      53.746474413249    73.23179015153254    95.39827183455046    8.275651450671715   0.2204760805884536   0.4001543944675411
      2930                     0   -454.8542049002869    9.633625475362448    8.376504166077684    53.75518019060211    89.31894593738798    77.68221787107008    8.112683586820889   0.2194763382993173   0.3976559101306547
      2940                     0   -454.8564283549136    9.634041026493501    8.376693286679945    53.76374786384558    29.11787109284012    25.32373885382288     5.95705170275671   0.2181573399007042   0.3937903235512841
      2950                     0   -454.8586737220386    9.633938256701018    8.376348797909319     53.7722801271274    48.94808366853926    63.89479832685149    6.847835707570543   0.2171736128179426   0.3913931044775402
      2960                     0   -454.8608586317266    9.633823431942117    8.376329472666431    53.78049794891955    65.48152934019502    51.05557659578369      6.7937688061046   0.2160661144160873   0.3889123805928568
      2970                     0   -454.8632267563869    9.634038710181192    8.376354807351115    53.78929805945931    35.31171636556369    25.41285328631112    5.650203205965816   0.2146419747447092   0.3854239506570718
      2980                     0   -454.8657127889217    9.633773684321516    8.375853885354235    53.79840142501177    79.69576373906737    88.15148223332898    7.422830709937798   0.2135203126376439   0.3831988554482489
      2990                     0   -454.8681982312804    9.634014462837898    8.375930861193094    53.80738619354513    44.95472885726002    52.50566498880511     6.02045093374914   0.2118710563431768   0.3794044864343364
      3000                     0   -454.8706881334269    9.634045155189161    8.375892007103483    53.81627409644317    41.03600254708851    37.50967942161969    5.551686052460706   0.2102978916231824   0.3761580590099017
      3010                     0   -454.8733370529083    9.633608471872058    8.375463875014651    53.82561051225233    107.7414020684105    88.39547081788687    7.550238867845983   0.2089677056744766   0.3742522817858385
      3020                     0   -454.8760190384939    9.633923215981163    8.375562009513832      53.834910658868    61.95411674174752    45.94787361763173    5.820259777191455   0.2069249542395735   0.3697373748663801
      3030                     0   -454.8788656812118    9.634298775599044    8.375646003810983    53.84468953702381    7.759969215386783    3.152924930265181    3.916669634943443   0.2046336148011048   0.3651812104204482
      3040                     0   -454.8815242271034    9.633817962460935    8.375241606813271    53.85363606501796    79.71609687597308    49.68453794052117    5.963968660901718   0.2031335326154593   0.3630248476897481
      3050                     0   -454.8847795531354     9.63415704577487    8.375148221728846    53.86448824298211    32.72674160993065    31.04955305423064    4.610855316401281   0.2004610527763435   0.3578151038790063
      3060                     0   -454.8878703762376    9.634142258558482    8.374933117846709    53.87462603065839      36.572779480104    36.98130464141872    4.671687836633535   0.1981065383402064   0.3538447340959106
      3070                     0   -454.8909207542601    9.633798698122478    8.374420244565941    53.88448239558518    90.23157299864128    94.23706626715892    6.470930355045229   0.1959550379915149   0.3502457877617182
      3080                     0   -454.8928709752265    9.633767487490269    8.374450428015404    53.89069548221013    92.99240653159853    71.34953361521224    6.046832390120678   0.1943032735520043   0.3476582234660341
      3090                     0   -454.8947705455914    9.634560480318685    8.374772662107114    53.89677953218811   -23.04520796234452   -7.499656218580258    2.273349173211143   0.1918229629328336   0.3440365519478783
      3100                     0   -454.8973188831374    9.635077900321843     8.37512993912566    53.90492124248954   -101.7462153805786   -95.64929762234165   -0.803889827070893   0.1890078726824842   0.3404138473867884
      3110                     0   -454.9008942359407    9.635068523924895    8.374720106747867    53.91596013157825   -96.93542773190674   -66.05847828710613  -0.1625284278692097   0.1860789729131335   0.3351236684474508
      3120                     0   -454.9043857866701    9.634890122649157    8.374724719151279    53.92668606094549   -75.25812472484172   -99.66759099965813  -0.6635599276572379    0.182636121864161   0.3302092611953346
      3130                     0   -454.9077990422231    9.635019264222411    8.374548967373517    53.93698625897117   -93.51631784363721   -108.9968714008356   -1.042449888593227   0.1795332742046215   0.3250103018519689
      3140                     0   -454.9109187061455    9.635179747506596    8.374087078043075    53.94625329293283   -111.9166026925025   -70.48377160277066  -0.8009672267534036   0.1765721486990979   0.3208603959225076
      3150                     0   -454.9133390150574    9.634945576107645    8.373940326661561    53.95332883643281   -79.87258567011573   -70.08853235551906  -0.2842542475388177   0.1743503414291269   0.3172251817252543
      3160                     0   -454.9179931333912    9.634796889049746    8.373748153487089    53.96700580803946   -62.04034123445521   -88.56378749722955  -0.6957263387806775   0.1693606491502104   0.3106732268799985
      3170                     0   -454.9213138309651     9.63470572472716    8.373257186526228    53.97662141095577   -46.47939751258569   -46.85700355429107   0.1651753178657351   0.1663133662096854   0.3063803559090347
      3180                     0   -454.9253181248833    9.635158876604255    8.373365507076738     53.9881818538448   -116.3573542758649   -116.6496829647613   -2.063484645920538   0.1621868133154614   0.2997175361245742
      3190                     0   -454.9272397504047    9.634002787649628    8.372336025738068    53.99338819584725     55.9211302810767    38.71090873219567    3.795494507029717   0.1617426085394018   0.2984335018673935
      3200                     0     -454.93107516664    9.634049621246266    8.372068825723364    54.00419530074816    47.13045262011183    34.12438481165792    3.650479761537893   0.1580225195400201   0.2938182442257682
      3210                     0   -454.9324174471272    9.633907271708601    8.371618572208233    54.00790878526274    71.15511423973508    91.58834606404741    4.702557816113065   0.1566245966559205   0.2905920568603786
      3220                     0   -454.9342991462839    9.633566413164637    8.371884608279908    54.01312761891969    110.9783792272387    30.20366174420621     4.45287387344857   0.1548486282194455   0.2890869834194842
      3230                     0   -454.9365848573104    9.634773608580513    8.372426645644239     54.0196237334678   -68.32072284286086   -98.74091763908913   -1.564711303615897   0.1506641383156126   0.2835921371087506
      3240                     0    -454.938865307696    9.635010630589534    8.372374342263875    54.02595439501712   -104.7928283303543   -122.5132829570829   -2.684353701912296   0.1480409509257699   0.2800799021887124
      3250                     0   -454.9412765828607    9.633625267562465    8.370770206227697    54.03228514771738    105.5432998802658    117.1371445376505    5.920566741700376   0.1482171646216392   0.2786623569355071
      3260                     0   -454.9450088333203    9.633968501530866    8.370983162210653    54.04255333444012    46.51878051512663    29.38208778953305    3.398202975533278   0.1438293249582781   0.2738357039746472
      3270                     0   -454.9471010891625    9.634612891872985    8.371250171650711    54.04835328373947   -51.44842829942657   -48.60485016676688  -0.1948470771312405   0.1403947222626297   0.2674861208772482
      3280                     0   -454.9492825970462    9.634009632077415    8.370629506154968    54.05424827297601    35.62172008596954    27.85168512527904       2.304548217406   0.1383984284924889   0.2648759565262359
      3290                     0   -454.9507356316734    9.633904676450978    8.370821322637115    54.05819620971998    43.48996318264779   -21.65538063817669    1.693763379032877   0.1368699471351791   0.2621900017928117
      3300                     0   -454.9526348229812    9.634981321925062     8.37063395717348    54.06353250194619   -107.5054171884804   -32.38673620238745   -1.481323961971718   0.1337721970656361   0.2610146617334632
      3310                     0   -454.9546223600978     9.63380669987639    8.369835762101459     54.0687226530889      60.953010984702    79.56195388902121    4.145698449747824   0.1337094807696009   0.2569416182574948
      3320                     0   -454.9563608917385    9.633719991181675    8.370079269666949    54.07349189092418    64.15674522789773    16.82324841389014     2.97109269424183   0.1314859396311209   0.2540717689870151
      3330                     0   -454.9606206318849    9.633949310047752    8.369833625809109    54.08528324862929    22.59590278973817   -11.33537449666237    1.551897607900807   0.1262924973619619   0.2462970016759987
      3340                     0   -454.9627968127265    9.634114092228039    8.369387013336755    54.09131720420092  -0.8323028395931533    23.52088929949645    1.743036846522642    0.123985280322008   0.2426765776573768
      3350                     0   -454.9654063812409    9.634209936712677     8.36988907666063    54.09867007983056    -30.8937485720147   -98.88546215508626  -0.8710109643437087    0.120574565835036    0.239533811831504
      3360                     0   -454.9673470903886    9.633980361087289    8.368958837502545    54.10396686828282    7.663004599347243    20.16985348793216     1.88633148321127    0.119198153389806   0.2353055921629768
      3370                     0   -454.9685384633799    9.634458173213446    8.368332232411099    54.10732140299216   -53.09881058988678    93.59708904996754    2.203962493414865   0.1180924883614553   0.2355807744915475
      3380                     0   -454.9697255019727    9.634323139665486    8.368689511754638    54.11066665617266   -44.06146066816046    19.52219857745474   0.9339975321690813   0.1164257098389986   0.2315057847097787
      3390                     0   -454.9707686858828    9.634613321423039    8.368211090222742    54.11364231752587   -80.78988799439077    74.08643622936879    1.203159500500733   0.1153327456194632   0.2320072437250993
      3400                     0   -454.9713949866102    9.633474772512031    8.369083695876713    54.11541408006784    60.75379204711579   -59.67673886453089    1.088731716468952   0.1144487557073231   0.2294392423100097
      3410                     0   -454.9723542216211    9.634652664307023    8.367960369464681    54.11814514139155   -88.46373103642496    86.35350488829376    1.403192724329784   0.1138082568086565   0.2300465633590087
      3420                     0   -454.9732856640437    9.632875620439584    8.369371494904808    54.12092842274758    131.6514721238819   -129.4822339208209   0.5565577429574979   0.1117863345158793   0.2306982324219967
      3430                     0   -454.9746336788311    9.633074875235678    8.369024796911772    54.12476442167815    103.9685364275705   -101.5936870740131    1.409343268418841   0.1113215680603185    0.230241194389275
      3440                     0   -454.9764619762151    9.634303051871317    8.368275919429134    54.13001691215459   -61.46953054246034   -29.98287968496525  -0.4038201095247601   0.1087458119569996   0.2194233671713542
      3450                     0   -454.9773473451478    9.634292573034202    8.367911115302645    54.13266089646848   -58.38952566732824    12.59168664175083  -0.1640586642511842   0.1073282262431252   0.2200202500565044
      3460                     0   -454.9781557915744    9.633134763050787    8.368541357394212    54.13501269963984    88.15606256935604   -87.24742188485854   0.8321264931835218    0.106894704679949   0.2191395117764506
      3470                     0    -454.978761438041    9.634208158467624    8.367543647119328    54.13675202662924   -47.43460417303348    45.85290454498879    1.053109498828409   0.1065220453714653   0.2165358239740701
      3480                     0   -454.9795377595793    9.633444036793133    8.368097387383571    54.13908280515746    46.06625744168561   -45.72727448817381   0.6678366370943956   0.1052193548535535   0.2144612357747603
      3490                     0   -454.9800797469738    9.634433385732233    8.367167647219667    54.14066313828571   -78.84283149816964    77.32575103657652    1.664565422187252   0.1057803449369423   0.2169928075179138
      3500                     0   -454.9806117686396    9.633451962775917    8.367946969338059    54.14228325385253    42.29077042338477   -41.94449441824001   0.7268383703242887   0.1041190964726262   0.2123514761386906
[...]
Histogram: 1 0 0 0 0 0 0 0 0 0
FullNghs:        21318 ave       21318 max       21318 min
Histogram: 1 0 0 0 0 0 0 0 0 0

Total # of neighbors = 21318
Ave neighs/atom = 343.83871
Neighbor list builds = 0
Dangerous builds = 0

# Minimize the with fire
  unfix           frb
  min_style       fire
  minimize        0.0 1.0e-3 10000 10000
  Parameters for fire:
    dmax  delaystep dtgrow dtshrink alpha0 alphashrink tmax tmin   integrator   halfstepback   abcfire  
     0.1     20      1.1     0.5     0.25     0.99      10  0.02 eulerimplicit      yes          no     
Per MPI rank memory allocation (min/avg/max) = 3.92 | 3.92 | 3.92 Mbytes
   Step          Temp          PotEng           Lx             Ly             Lz            Pxx            Pyy            Pzz            Fmax          Fnorm     
      7876                     0   -455.0404821405621    9.627870826122415    8.352371020045767    54.42982549256967    0.105097667157782  0.09824722461157076  0.00514073961480174 4.034405880032777e-05 0.0001487775198020287
      7877  1.127540931254025e-09   -455.0404821405843    9.627870826122415    8.352371020045767    54.42982549256967   0.1053572104586538  0.09825921465969691 0.005313199992892493 4.026551935102513e-05 0.0001481652050173239
Loop time of 0.00238963 on 1 procs for 1 steps with 62 atoms

92.8% CPU use with 1 MPI tasks x no OpenMP threads

Minimization stats:
  Stopping criterion = force tolerance
  Energy initial, next-to-last, final = 
     -455.040482140562  -455.040482140562  -455.040482140584
  Force two-norm initial, final = 0.00014877752 0.00014816521
  Force max component initial, final = 4.0344059e-05 4.0265519e-05
  Final line search alpha, max atom move = 0 0
  Iterations, force evaluations = 1 2

MPI task timing breakdown:
Section |  min time  |  avg time  |  max time  |%varavg| %total
---------------------------------------------------------------
Pair    | 0.0021117  | 0.0021117  | 0.0021117  |   0.0 | 88.37
Neigh   | 0          | 0          | 0          |   0.0 |  0.00
Comm    | 9.506e-06  | 9.506e-06  | 9.506e-06  |   0.0 |  0.40
Output  | 0          | 0          | 0          |   0.0 |  0.00
Modify  | 0          | 0          | 0          |   0.0 |  0.00
Other   |            | 0.0002684  |            |       | 11.23

Nlocal:             62 ave          62 max          62 min
Histogram: 1 0 0 0 0 0 0 0 0 0
Nghost:            906 ave         906 max         906 min
Histogram: 1 0 0 0 0 0 0 0 0 0
Neighs:              0 ave           0 max           0 min
Histogram: 1 0 0 0 0 0 0 0 0 0
FullNghs:        21318 ave       21318 max       21318 min
Histogram: 1 0 0 0 0 0 0 0 0 0

Total # of neighbors = 21318
Ave neighs/atom = 343.83871
Neighbor list builds = 0
Dangerous builds = 0

next nr
jump ${simname}.in loopmin
jump AIREBO.in loopmin

# Minimize the with cg + box/relax
  fix             frb all box/relax tri 0.0 couple none
  min_style       cg
  min_modify      line quadratic
  minimize        0.0 1.0e-3 10000 10000
WARNING: Energy due to 6 extra global DOFs will be included in minimizer energies
 (src/min.cpp:225)
Per MPI rank memory allocation (min/avg/max) = 5.045 | 5.045 | 5.045 Mbytes
   Step          Temp          PotEng           Lx             Ly             Lz            Pxx            Pyy            Pzz            Fmax          Fnorm     
      7877  1.127540931254025e-09   -455.0404821405845    9.627870826122415    8.352371020045767    54.42982549256967   0.1053572105914249  0.09825921454605786 0.005313199977647403 4.026551936191529e-05 0.0001481652050072541
      7878  1.127540931254025e-09   -455.0404821406213    9.627871664610371    8.352371698445049     54.4298257316231 -0.01939539074456744 -0.01776687904646293 -0.0006089301273615941 4.304650355514824e-05 0.0001481853887405558
Loop time of 0.00261168 on 1 procs for 1 steps with 62 atoms

0.0% CPU use with 1 MPI tasks x no OpenMP threads

Minimization stats:
  Stopping criterion = force tolerance
  Energy initial, next-to-last, final = 
     -455.040482140585  -455.040482140585  -455.040482140621
  Force two-norm initial, final = 0.00046417294 0.00019968191
  Force max component initial, final = 0.00028782657 9.832718e-05
  Final line search alpha, max atom move = 0.34743144 3.4161954e-05
  Iterations, force evaluations = 1 2

MPI task timing breakdown:
Section |  min time  |  avg time  |  max time  |%varavg| %total
---------------------------------------------------------------
Pair    | 0.0022894  | 0.0022894  | 0.0022894  |   0.0 | 87.66
Neigh   | 0          | 0          | 0          |   0.0 |  0.00
Comm    | 1.0115e-05 | 1.0115e-05 | 1.0115e-05 |   0.0 |  0.39
Output  | 0          | 0          | 0          |   0.0 |  0.00
Modify  | 0          | 0          | 0          |   0.0 |  0.00
Other   |            | 0.0003121  |            |       | 11.95

Nlocal:             62 ave          62 max          62 min
Histogram: 1 0 0 0 0 0 0 0 0 0
Nghost:            906 ave         906 max         906 min
Histogram: 1 0 0 0 0 0 0 0 0 0
Neighs:              0 ave           0 max           0 min
Histogram: 1 0 0 0 0 0 0 0 0 0
FullNghs:        21318 ave       21318 max       21318 min
Histogram: 1 0 0 0 0 0 0 0 0 0

Total # of neighbors = 21318
Ave neighs/atom = 343.83871
Neighbor list builds = 0
Dangerous builds = 0

# Minimize the with fire
  unfix           frb
  min_style       fire
  minimize        0.0 1.0e-3 10000 10000
  Parameters for fire:
    dmax  delaystep dtgrow dtshrink alpha0 alphashrink tmax tmin   integrator   halfstepback   abcfire  
     0.1     20      1.1     0.5     0.25     0.99      10  0.02 eulerimplicit      yes          no     
Per MPI rank memory allocation (min/avg/max) = 3.92 | 3.92 | 3.92 Mbytes
   Step          Temp          PotEng           Lx             Ly             Lz            Pxx            Pyy            Pzz            Fmax          Fnorm     
      7878                     0   -455.0404821406214    9.627871664610371    8.352371698445049     54.4298257316231 -0.01939539168372286  -0.0177668792972983 -0.0006089355211598255 4.30465035179033e-05  0.00014818538875269
      7879  1.118583618467998e-09   -455.0404821406431    9.627871664610371    8.352371698445049     54.4298257316231  -0.0188887032982862 -0.01761805794322384 -0.0004952801787414359 4.289929451631704e-05 0.0001477469157257839
Loop time of 0.00241705 on 1 procs for 1 steps with 62 atoms

84.4% CPU use with 1 MPI tasks x no OpenMP threads

Minimization stats:
  Stopping criterion = force tolerance
  Energy initial, next-to-last, final = 
     -455.040482140621  -455.040482140621  -455.040482140643
  Force two-norm initial, final = 0.00014818539 0.00014774692
  Force max component initial, final = 4.3046504e-05 4.2899295e-05
  Final line search alpha, max atom move = 0 0
  Iterations, force evaluations = 1 2

MPI task timing breakdown:
Section |  min time  |  avg time  |  max time  |%varavg| %total
---------------------------------------------------------------
Pair    | 0.0021091  | 0.0021091  | 0.0021091  |   0.0 | 87.26
Neigh   | 0          | 0          | 0          |   0.0 |  0.00
Comm    | 1.0132e-05 | 1.0132e-05 | 1.0132e-05 |   0.0 |  0.42
Output  | 0          | 0          | 0          |   0.0 |  0.00
Modify  | 0          | 0          | 0          |   0.0 |  0.00
Other   |            | 0.0002978  |            |       | 12.32

Nlocal:             62 ave          62 max          62 min
Histogram: 1 0 0 0 0 0 0 0 0 0
Nghost:            906 ave         906 max         906 min
Histogram: 1 0 0 0 0 0 0 0 0 0
Neighs:              0 ave           0 max           0 min
Histogram: 1 0 0 0 0 0 0 0 0 0
FullNghs:        21318 ave       21318 max       21318 min
Histogram: 1 0 0 0 0 0 0 0 0 0

Total # of neighbors = 21318
Ave neighs/atom = 343.83871
Neighbor list builds = 0
Dangerous builds = 0

next nr
jump ${simname}.in loopmin
jump AIREBO.in loopmin

# Minimize the with cg + box/relax
  fix             frb all box/relax tri 0.0 couple none
  min_style       cg
  min_modify      line quadratic
  minimize        0.0 1.0e-3 10000 10000
WARNING: Energy due to 6 extra global DOFs will be included in minimizer energies
 (src/min.cpp:225)
Per MPI rank memory allocation (min/avg/max) = 5.045 | 5.045 | 5.045 Mbytes
   Step          Temp          PotEng           Lx             Ly             Lz            Pxx            Pyy            Pzz            Fmax          Fnorm     
      7879  1.118583618467998e-09   -455.0404821406433    9.627871664610371    8.352371698445049     54.4298257316231  -0.0188887032818662 -0.01761805792621015 -0.0004952800906781321 4.289929452619282e-05 0.0001477469157078257
      7880  1.118583618467998e-09   -455.0404821406684    9.627870821207438    8.352371015995574    54.42982560659859   0.1057143142602901  0.09882234039669434 0.005230002865583385 3.98585387005961e-05 0.0001478337227477986
Loop time of 0.00267216 on 1 procs for 1 steps with 62 atoms

94.2% CPU use with 1 MPI tasks x no OpenMP threads

Minimization stats:
  Stopping criterion = force tolerance
  Energy initial, next-to-last, final = 
     -455.040482140643  -455.040482140643  -455.040482140668
  Force two-norm initial, final = 0.00019870993 0.00046993156
  Force max component initial, final = 9.8551767e-05 0.00028880217
  Final line search alpha, max atom move = 1 0.00028880217
  Iterations, force evaluations = 1 2

MPI task timing breakdown:
Section |  min time  |  avg time  |  max time  |%varavg| %total
---------------------------------------------------------------
Pair    | 0.0023681  | 0.0023681  | 0.0023681  |   0.0 | 88.62
Neigh   | 0          | 0          | 0          |   0.0 |  0.00
Comm    | 1.0472e-05 | 1.0472e-05 | 1.0472e-05 |   0.0 |  0.39
Output  | 0          | 0          | 0          |   0.0 |  0.00
Modify  | 0          | 0          | 0          |   0.0 |  0.00
Other   |            | 0.0002936  |            |       | 10.99

Nlocal:             62 ave          62 max          62 min
Histogram: 1 0 0 0 0 0 0 0 0 0
Nghost:            906 ave         906 max         906 min
Histogram: 1 0 0 0 0 0 0 0 0 0
Neighs:              0 ave           0 max           0 min
Histogram: 1 0 0 0 0 0 0 0 0 0
FullNghs:        21318 ave       21318 max       21318 min
Histogram: 1 0 0 0 0 0 0 0 0 0

Total # of neighbors = 21318
Ave neighs/atom = 343.83871
Neighbor list builds = 0
Dangerous builds = 0

# Minimize the with fire
  unfix           frb
  min_style       fire
  minimize        0.0 1.0e-3 10000 10000
  Parameters for fire:
    dmax  delaystep dtgrow dtshrink alpha0 alphashrink tmax tmin   integrator   halfstepback   abcfire  
     0.1     20      1.1     0.5     0.25     0.99      10  0.02 eulerimplicit      yes          no     
Per MPI rank memory allocation (min/avg/max) = 3.92 | 3.92 | 3.92 Mbytes
   Step          Temp          PotEng           Lx             Ly             Lz            Pxx            Pyy            Pzz            Fmax          Fnorm     
      7880                     0   -455.0404821406684    9.627870821207438    8.352371015995574    54.42982560659859    0.105714313405756  0.09882234003788103 0.005229997547866204 3.985853870048378e-05 0.0001478337227349099
      7881  1.113280786601893e-09    -455.040482140688    9.627870821207438    8.352371015995574    54.42982560659859   0.1059568691595896  0.09882386065162928 0.005407203987728591 3.978367023290807e-05 0.000147191319762185
Loop time of 0.00224229 on 1 procs for 1 steps with 62 atoms

92.9% CPU use with 1 MPI tasks x no OpenMP threads

Minimization stats:
  Stopping criterion = force tolerance
  Energy initial, next-to-last, final = 
     -455.040482140668  -455.040482140668  -455.040482140688
  Force two-norm initial, final = 0.00014783372 0.00014719132
  Force max component initial, final = 3.9858539e-05 3.978367e-05
  Final line search alpha, max atom move = 0 0
  Iterations, force evaluations = 1 2

MPI task timing breakdown:
Section |  min time  |  avg time  |  max time  |%varavg| %total
---------------------------------------------------------------
Pair    | 0.0019816  | 0.0019816  | 0.0019816  |   0.0 | 88.37
Neigh   | 0          | 0          | 0          |   0.0 |  0.00
Comm    | 1.0299e-05 | 1.0299e-05 | 1.0299e-05 |   0.0 |  0.46
Output  | 0          | 0          | 0          |   0.0 |  0.00
Modify  | 0          | 0          | 0          |   0.0 |  0.00
Other   |            | 0.0002504  |            |       | 11.17

Nlocal:             62 ave          62 max          62 min
Histogram: 1 0 0 0 0 0 0 0 0 0
Nghost:            906 ave         906 max         906 min
Histogram: 1 0 0 0 0 0 0 0 0 0
Neighs:              0 ave           0 max           0 min
Histogram: 1 0 0 0 0 0 0 0 0 0
FullNghs:        21318 ave       21318 max       21318 min
Histogram: 1 0 0 0 0 0 0 0 0 0

Total # of neighbors = 21318
Ave neighs/atom = 343.83871
Neighbor list builds = 0
Dangerous builds = 0

next nr
jump ${simname}.in loopmin
jump AIREBO.in loopmin

# Minimize the with cg + box/relax
  fix             frb all box/relax tri 0.0 couple none
  min_style       cg
  min_modify      line quadratic
  minimize        0.0 1.0e-3 10000 10000
Per MPI rank memory allocation (min/avg/max) = 5.045 | 5.045 | 5.045 Mbytes
   Step          Temp          PotEng           Lx             Ly             Lz            Pxx            Pyy            Pzz            Fmax          Fnorm     
WARNING: Too many warnings: 101 vs 100. All future warnings will be suppressed (src/thermo.cpp:472)
      7881  1.113280786601893e-09   -455.0404821406879    9.627870821207438    8.352371015995574    54.42982560659859   0.1059568689817716  0.09882386060755458 0.005407204001886135 3.978367022869226e-05 0.0001471913198065461
      7882  1.113280786601893e-09   -455.0404821407158     9.62787166232436    8.352371696558984     54.4298258492631 -0.01918814583701568 -0.01755768196960728 -0.0005516796263109571 4.259199120390912e-05 0.0001470055277415998
Loop time of 0.00241707 on 1 procs for 1 steps with 62 atoms

92.8% CPU use with 1 MPI tasks x no OpenMP threads

Minimization stats:
  Stopping criterion = force tolerance
  Energy initial, next-to-last, final = 
     -455.040482140688  -455.040482140688  -455.040482140716
  Force two-norm initial, final = 0.00046839565 0.00019807366
  Force max component initial, final = 0.00028946478 9.8190329e-05
  Final line search alpha, max atom move = 0.34546517 3.3921339e-05
  Iterations, force evaluations = 1 2

MPI task timing breakdown:
Section |  min time  |  avg time  |  max time  |%varavg| %total
---------------------------------------------------------------
Pair    | 0.0021276  | 0.0021276  | 0.0021276  |   0.0 | 88.02
Neigh   | 0          | 0          | 0          |   0.0 |  0.00
Comm    | 9.281e-06  | 9.281e-06  | 9.281e-06  |   0.0 |  0.38
Output  | 0          | 0          | 0          |   0.0 |  0.00
Modify  | 0          | 0          | 0          |   0.0 |  0.00
Other   |            | 0.0002802  |            |       | 11.59

Nlocal:             62 ave          62 max          62 min
Histogram: 1 0 0 0 0 0 0 0 0 0
Nghost:            906 ave         906 max         906 min
Histogram: 1 0 0 0 0 0 0 0 0 0
Neighs:              0 ave           0 max           0 min
Histogram: 1 0 0 0 0 0 0 0 0 0
FullNghs:        21318 ave       21318 max       21318 min
Histogram: 1 0 0 0 0 0 0 0 0 0

Total # of neighbors = 21318
Ave neighs/atom = 343.83871
Neighbor list builds = 0
Dangerous builds = 0

# Minimize the with fire
  unfix           frb
  min_style       fire
  minimize        0.0 1.0e-3 10000 10000
  Parameters for fire:
    dmax  delaystep dtgrow dtshrink alpha0 alphashrink tmax tmin   integrator   halfstepback   abcfire  
     0.1     20      1.1     0.5     0.25     0.99      10  0.02 eulerimplicit      yes          no     
Per MPI rank memory allocation (min/avg/max) = 3.92 | 3.92 | 3.92 Mbytes
   Step          Temp          PotEng           Lx             Ly             Lz            Pxx            Pyy            Pzz            Fmax          Fnorm     
      7882                     0   -455.0404821407159     9.62787166232436    8.352371696558984     54.4298258492631 -0.01918814664139755 -0.01755768240383064 -0.0005516849054081421 4.259199119169494e-05 0.0001470055277515605
      7883  1.100842070055251e-09   -455.0404821407376     9.62787166232436    8.352371696558984     54.4298258492631 -0.01869823740695118 -0.01741751609522178 -0.0004325431510712879 4.244737822903417e-05 0.0001465776526456247
Loop time of 0.00230551 on 1 procs for 1 steps with 62 atoms

92.1% CPU use with 1 MPI tasks x no OpenMP threads

Minimization stats:
  Stopping criterion = force tolerance
  Energy initial, next-to-last, final = 
     -455.040482140716  -455.040482140716  -455.040482140738
  Force two-norm initial, final = 0.00014700553 0.00014657765
  Force max component initial, final = 4.2591991e-05 4.2447378e-05
  Final line search alpha, max atom move = 0 0
  Iterations, force evaluations = 1 2

MPI task timing breakdown:
Section |  min time  |  avg time  |  max time  |%varavg| %total
---------------------------------------------------------------
Pair    | 0.0020222  | 0.0020222  | 0.0020222  |   0.0 | 87.71
Neigh   | 0          | 0          | 0          |   0.0 |  0.00
Comm    | 9.175e-06  | 9.175e-06  | 9.175e-06  |   0.0 |  0.40
Output  | 0          | 0          | 0          |   0.0 |  0.00
Modify  | 0          | 0          | 0          |   0.0 |  0.00
Other   |            | 0.0002741  |            |       | 11.89

Nlocal:             62 ave          62 max          62 min
Histogram: 1 0 0 0 0 0 0 0 0 0
Nghost:            906 ave         906 max         906 min
Histogram: 1 0 0 0 0 0 0 0 0 0
Neighs:              0 ave           0 max           0 min
Histogram: 1 0 0 0 0 0 0 0 0 0
FullNghs:        21318 ave       21318 max       21318 min
Histogram: 1 0 0 0 0 0 0 0 0 0

Total # of neighbors = 21318
Ave neighs/atom = 343.83871
Neighbor list builds = 0
Dangerous builds = 0

next nr
jump ${simname}.in loopmin
jump AIREBO.in loopmin

variable        energy equal pe
fix             output all ave/time 1 1 1 v_energy file ${simname}_energy.data
fix             output all ave/time 1 1 1 v_energy file AIREBO_energy.data
dump            dump1 all custom 1 ${simname}.lammpstrj id type x y z fx fy fz
dump            dump1 all custom 1 AIREBO.lammpstrj id type x y z fx fy fz
dump_modify     dump1 sort id

fix             nve all nve
run             0
Per MPI rank memory allocation (min/avg/max) = 3.92 | 3.92 | 3.92 Mbytes
   Step          Temp          PotEng           Lx             Ly             Lz            Pxx            Pyy            Pzz            Fmax          Fnorm     
      7883  1.100842070055251e-09   -455.0404821407379     9.62787166232436    8.352371696558984     54.4298258492631 -0.01869823771041745 -0.01741751621742404 -0.0004325431269269681 4.24473782354674e-05 0.0001465776526821446
Loop time of 1.011e-06 on 1 procs for 0 steps with 62 atoms

494.6% CPU use with 1 MPI tasks x no OpenMP threads

MPI task timing breakdown:
Section |  min time  |  avg time  |  max time  |%varavg| %total
---------------------------------------------------------------
Pair    | 0          | 0          | 0          |   0.0 |  0.00
Neigh   | 0          | 0          | 0          |   0.0 |  0.00
Comm    | 0          | 0          | 0          |   0.0 |  0.00
Output  | 0          | 0          | 0          |   0.0 |  0.00
Modify  | 0          | 0          | 0          |   0.0 |  0.00
Other   |            | 1.011e-06  |            |       |100.00

Nlocal:             62 ave          62 max          62 min
Histogram: 1 0 0 0 0 0 0 0 0 0
Nghost:            906 ave         906 max         906 min
Histogram: 1 0 0 0 0 0 0 0 0 0
Neighs:              0 ave           0 max           0 min
Histogram: 1 0 0 0 0 0 0 0 0 0
FullNghs:        21318 ave       21318 max       21318 min
Histogram: 1 0 0 0 0 0 0 0 0 0

Total # of neighbors = 21318
Ave neighs/atom = 343.83871
Neighbor list builds = 0
Dangerous builds = 0
Total wall time: 0:00:11
