ITEM: TIMESTEP
7883
ITEM: NUMBER OF ATOMS
62
ITEM: BOX BOUNDS xy xz yz pp pp pp
-1.4666176405180171e+00 1.4491891881097876e+01 4.7889244230357662e+00
-7.6112595073165945e-01 8.4289472193795110e+00 -1.5417134362557670e+00
-2.3495315875817595e+00 5.2080294261681345e+01 -8.3770147355218638e-01
ITEM: ATOMS id type x y z fx fy fz
1 1 13.821 8.06344 18.6686 -7.88136e-06 -2.0145e-06 5.38521e-06
2 1 0.606924 0.407877 18.7187 -5.30921e-06 -3.36827e-06 2.92302e-06
3 1 0.661119 0.439278 22.388 8.13379e-07 1.15728e-06 1.51932e-05
4 1 1.87078 1.14009 22.4062 2.583e-06 4.61603e-07 3.71144e-05
5 1 10.2265 1.79972 18.7916 -5.16744e-06 -4.16397e-06 -8.32643e-06
6 1 1.81178 2.49007 18.8614 -4.4631e-06 -3.62586e-06 -6.25109e-06
7 1 1.84486 2.54323 22.3956 -4.59668e-07 1.01491e-06 2.398e-05
8 1 3.05417 3.24969 22.4908 2.99566e-07 2.90106e-06 -2.41463e-06
9 1 11.4291 3.87643 18.7703 -6.63455e-06 -3.1393e-06 -2.67446e-06
10 1 3.00187 4.57084 18.8671 -8.35384e-06 -2.66703e-06 2.38182e-05
11 1 3.06758 4.61371 22.2307 1.5787e-06 5.31428e-06 1.15688e-05
12 1 4.24213 5.33643 21.9734 7.76097e-06 4.1805e-06 1.23243e-05
13 1 12.6186 5.96269 18.6898 -5.78325e-06 -3.28148e-06 6.18438e-06
14 1 4.192 6.6735 18.7162 -4.8937e-06 -2.23876e-06 -4.30037e-06
15 1 4.24377 6.7035 22.3058 5.84681e-06 3.53574e-06 2.99521e-06
16 1 5.45793 7.39209 22.3322 7.61243e-06 2.4088e-06 -5.44817e-06
17 1 6.59919 8.06077 18.7916 -7.41998e-06 -1.12085e-06 -8.57175e-06
18 1 3.01257 0.417422 18.8614 -5.12103e-06 -2.69545e-06 -5.47629e-06
19 1 3.07513 0.419685 22.3956 2.5972e-07 -7.14096e-07 2.25096e-05
20 1 4.28952 1.11739 22.4908 2.69153e-06 -1.21659e-06 -3.16369e-06
21 1 3.02921 1.81123 18.9985 -8.69126e-06 -4.06262e-06 6.08936e-06
22 1 4.23996 2.51268 19.2183 -1.0327e-05 -6.90605e-06 3.09434e-05
23 1 4.17381 2.47436 22.8144 4.83408e-06 4.87342e-06 -4.24474e-05
24 1 4.1865 3.9177 19.2833 -1.42961e-05 -4.97513e-06 2.55707e-05
25 1 5.18115 4.80011 19.8069 -1.00519e-05 6.88133e-08 1.72227e-06
26 1 5.37697 4.91356 21.2151 3.2243e-06 6.01045e-06 -1.93536e-06
27 1 6.63722 5.33753 21.7387 9.75232e-06 7.27119e-06 -2.53539e-05
28 1 5.37877 5.99494 19.0486 -9.08775e-06 -4.10289e-06 -1.34004e-05
29 1 6.58997 6.6544 18.7913 -5.46663e-06 -3.5725e-07 -1.39975e-05
30 1 6.65984 6.69009 22.1549 6.16864e-06 6.10617e-06 -2.352e-05
31 1 7.85945 7.38625 22.2517 7.11114e-06 2.06235e-06 1.43113e-06
32 1 8.99894 8.07109 18.7703 -7.11114e-06 -2.06235e-06 -1.43112e-06
33 1 5.40963 0.414875 18.8671 -6.16864e-06 -6.10617e-06 2.352e-05
34 1 5.4795 0.450563 22.2307 5.46663e-06 3.57248e-07 1.39975e-05
35 1 6.6907 1.11002 21.9734 9.08775e-06 4.10289e-06 1.34004e-05
36 1 5.43225 1.76744 19.2833 -9.75232e-06 -7.27119e-06 2.53539e-05
37 1 6.6925 2.19141 19.8069 -3.2243e-06 -6.01045e-06 1.93536e-06
38 1 6.88832 2.30485 21.2151 1.00519e-05 -6.88126e-08 -1.72227e-06
39 1 7.88297 3.18727 21.7387 1.42961e-05 4.97513e-06 -2.55707e-05
40 1 7.89566 4.63061 18.2076 -4.83408e-06 -4.87342e-06 4.24474e-05
41 1 7.82951 4.59228 21.8036 1.0327e-05 6.90605e-06 -3.09434e-05
42 1 9.04026 5.29374 22.0235 8.69126e-06 4.06262e-06 -6.08935e-06
43 1 7.77995 5.98757 18.5312 -2.69153e-06 1.21659e-06 3.16369e-06
44 1 8.99434 6.68528 18.6264 -2.59723e-07 7.14097e-07 -2.25096e-05
45 1 9.0569 6.68754 22.1606 5.12103e-06 2.69545e-06 5.47628e-06
46 1 10.2592 7.39656 22.2304 7.41998e-06 1.12085e-06 8.57175e-06
47 1 11.4005 8.06525 18.6898 -7.61243e-06 -2.40881e-06 5.44817e-06
48 1 7.8257 0.401464 18.7162 -5.84681e-06 -3.53574e-06 -2.99521e-06
49 1 7.87747 0.431459 22.3058 4.8937e-06 2.23876e-06 4.30036e-06
50 1 9.07877 1.14227 22.3322 5.78325e-06 3.28148e-06 -6.18438e-06
51 1 7.82734 1.76853 19.0486 -7.76097e-06 -4.1805e-06 -1.23243e-05
52 1 9.00189 2.49125 18.7913 -1.5787e-06 -5.31428e-06 -1.15688e-05
53 1 9.0676 2.53412 22.1549 8.35384e-06 2.66703e-06 -2.38182e-05
54 1 10.2682 3.22854 22.2517 6.63455e-06 3.1393e-06 2.67446e-06
55 1 9.0153 3.85527 18.5312 -2.99567e-07 -2.90106e-06 2.41463e-06
56 1 10.2246 4.56173 18.6264 4.59668e-07 -1.01491e-06 -2.398e-05
57 1 10.2577 4.61489 22.1606 4.4631e-06 3.62586e-06 6.25108e-06
58 1 11.4708 5.30524 22.2304 5.16744e-06 4.16397e-06 8.32643e-06
59 1 10.1987 5.96487 18.6158 -2.583e-06 -4.61603e-07 -3.71144e-05
60 1 11.4084 6.66569 18.634 -8.1338e-07 -1.15728e-06 -1.51932e-05
61 1 11.4625 6.69709 22.3033 5.30921e-06 3.36827e-06 -2.92302e-06
62 1 12.6653 7.3939 22.3534 7.88136e-06 2.0145e-06 -5.3852e-06
