ITEM: TIMESTEP
6732
ITEM: NUMBER OF ATOMS
62
ITEM: BOX BOUNDS xy xz yz pp pp pp
-1.9415493434042950e+00 1.4630762574390367e+01 4.8527546330245190e+00
-1.0510374591056650e+00 8.4971453630398432e+00 -1.9416046558385327e+00
-1.8616703122950458e+00 5.1592432986395117e+01 -1.0594148382658173e+00
ITEM: ATOMS id type x y z fx fy fz
1 1 13.8054 8.04633 18.7364 -6.51872e-06 -6.6844e-06 9.33935e-06
2 1 0.394983 0.265594 18.8342 -1.07211e-05 -7.10143e-06 -7.7558e-06
3 1 0.421095 0.28072 22.4897 6.87686e-06 4.81232e-06 -5.16241e-05
4 1 1.64736 0.992201 22.4676 3.04681e-06 4.5354e-06 -6.61089e-06
5 1 10.1642 1.67848 18.9122 -1.10519e-05 -5.50695e-06 -1.18612e-05
6 1 1.61912 2.38539 18.9639 -1.54897e-05 -8.57094e-06 3.63228e-05
7 1 1.62349 2.4176 22.4265 6.94753e-06 5.72915e-06 2.11947e-05
8 1 2.85189 3.14095 22.4517 2.00974e-06 5.51587e-06 0.000109708
9 1 11.3848 3.79357 18.8658 -8.76912e-06 -6.54972e-06 3.83132e-05
10 1 2.82522 4.50232 18.9322 -1.45306e-05 -7.20856e-06 6.58171e-05
11 1 2.86453 4.53163 22.2547 1.67381e-05 1.02723e-06 5.6007e-05
12 1 4.05778 5.26497 22.0444 1.54958e-05 -6.00808e-06 1.71513e-05
13 1 12.5885 5.91407 18.7398 -6.17009e-06 -6.61872e-06 5.61744e-05
14 1 4.02924 6.63412 18.7823 -7.97386e-06 -9.46319e-06 1.41559e-05
15 1 4.05205 6.64733 22.3959 1.14026e-05 3.55473e-06 -1.68862e-05
16 1 5.28199 7.34798 22.4383 6.30415e-06 6.21962e-06 -5.78063e-05
17 1 6.46999 8.04554 18.9122 -7.58448e-06 -1.14631e-05 -1.29805e-05
18 1 2.84283 0.276285 18.9639 -1.44815e-05 -1.05682e-05 3.59293e-05
19 1 2.87298 0.264063 22.4265 7.53189e-06 4.71886e-06 2.16721e-05
20 1 4.11061 0.971506 22.4516 2.71339e-06 3.69469e-06 0.000111281
21 1 2.86034 1.696 19.0858 -1.54664e-05 -1.18715e-05 5.79424e-05
22 1 4.10242 2.41666 19.2769 -2.24765e-05 -1.39552e-05 6.5694e-05
23 1 4.00565 2.36048 22.5852 -2.40843e-06 -1.40754e-06 0.000199541
24 1 4.03686 3.84155 19.3479 -1.49779e-05 -1.24458e-05 5.35358e-05
25 1 5.01795 4.73426 19.8847 3.79659e-07 -1.43291e-05 5.65137e-06
26 1 5.21072 4.84609 21.2934 1.15533e-05 -5.44217e-06 -6.39073e-06
27 1 6.47264 5.25477 21.8302 1.66896e-05 1.09812e-05 -5.30989e-05
28 1 5.22649 5.94309 19.1337 -2.32814e-07 -2.04722e-05 -1.88775e-05
29 1 6.45535 6.61506 18.9234 -8.58294e-06 -1.50952e-05 -5.7806e-05
30 1 6.50032 6.6346 22.2459 1.23948e-05 1.04921e-05 -6.71677e-05
31 1 7.72032 7.34062 22.3123 7.33884e-06 8.85105e-06 -3.80905e-05
32 1 8.91198 8.05549 18.8658 -7.33885e-06 -8.85105e-06 3.80905e-05
33 1 5.27923 0.272748 18.9322 -1.23948e-05 -1.04921e-05 6.71678e-05
34 1 5.3242 0.292288 22.2547 8.58295e-06 1.50952e-05 5.78059e-05
35 1 6.55306 0.964257 22.0444 2.32841e-07 2.04722e-05 1.88775e-05
36 1 5.30691 1.65257 19.3479 -1.66896e-05 -1.09812e-05 5.3099e-05
37 1 6.56883 2.06125 19.8847 -1.15532e-05 5.4422e-06 6.39079e-06
38 1 6.7616 2.17309 21.2934 -3.79622e-07 1.43291e-05 -5.65131e-06
39 1 7.74269 3.06579 21.8302 1.49779e-05 1.24458e-05 -5.35357e-05
40 1 7.7739 4.54686 18.5929 2.40846e-06 1.40756e-06 -0.000199542
41 1 7.67713 4.49069 21.9012 2.24765e-05 1.39552e-05 -6.5694e-05
42 1 8.91921 5.21134 22.0923 1.54664e-05 1.18715e-05 -5.79424e-05
43 1 7.66894 5.93584 18.7265 -2.7134e-06 -3.6947e-06 -0.000111282
44 1 8.90657 6.64328 18.7516 -7.5319e-06 -4.71886e-06 -2.16723e-05
45 1 8.93672 6.63106 22.2142 1.44815e-05 1.05682e-05 -3.59293e-05
46 1 10.1623 7.35057 22.2659 7.58448e-06 1.14631e-05 1.29805e-05
47 1 11.3503 8.04814 18.7398 -6.30415e-06 -6.21963e-06 5.78065e-05
48 1 7.7275 0.260016 18.7822 -1.14026e-05 -3.55473e-06 1.68864e-05
49 1 7.75031 0.273226 22.3959 7.97385e-06 9.4632e-06 -1.41557e-05
50 1 8.969 0.993278 22.4383 6.17008e-06 6.61872e-06 -5.61742e-05
51 1 7.72177 1.64237 19.1337 -1.54958e-05 6.00811e-06 -1.71512e-05
52 1 8.91502 2.37571 18.9234 -1.67381e-05 -1.02721e-06 -5.60071e-05
53 1 8.95433 2.40502 22.2459 1.45306e-05 7.20856e-06 -6.58169e-05
54 1 10.1727 3.11378 22.3123 8.76911e-06 6.54972e-06 -3.83132e-05
55 1 8.92765 3.76639 18.7265 -2.00975e-06 -5.51587e-06 -0.000109709
56 1 10.1561 4.48975 18.7516 -6.94753e-06 -5.72915e-06 -2.11948e-05
57 1 10.1604 4.52195 22.2142 1.54897e-05 8.57094e-06 -3.63228e-05
58 1 11.3933 5.22886 22.2659 1.10519e-05 5.50696e-06 1.18612e-05
59 1 10.1322 5.91514 18.7105 -3.04681e-06 -4.5354e-06 6.61084e-06
60 1 11.3585 6.62662 18.6884 -6.87685e-06 -4.81232e-06 5.16243e-05
61 1 11.3846 6.64175 22.3439 1.07211e-05 7.10143e-06 7.7559e-06
62 1 12.6049 7.34978 22.4417 6.51872e-06 6.6844e-06 -9.33915e-06
