units           metal
atom_style      atomic
boundary        p p p
processors		  * * 1
read_data		    AB2.data
Reading data file ...
  triclinic box = (0 0 0) to (9.7780633 8.5055227 49.730763) with tilt (4.8257792 0.29560231 0.17731162)
WARNING: Triclinic box skew is large. LAMMPS will run inefficiently. (src/domain.cpp:220)
  1 by 1 by 1 MPI processor grid
  reading atoms ...
  62 atoms
  read_data CPU = 0.006 seconds
mass            1 12.011

# Define potentials
pair_style      lcbop
pair_coeff      * * C.lcbop C
Reading potential file C.lcbop with DATE: 2012-05-22


# Variable
variable        thermofrq equal 10
variable        Nloop equal 100     # number of loop to run
variable        binding equal pe


# Output
thermo          ${thermofrq}
thermo          10
thermo_style    custom step temp pe lx ly lz pxx pyy pzz fmax fnorm
thermo_modify   line one format float %20.16g
thermo_modify   flush yes norm no lost warn

# Minimize the system in loops
timestep        1.0e-3
variable        nr loop ${Nloop}
variable        nr loop 100
label           loopmin

# Minimize the with cg + box/relax
  fix             frb all box/relax tri 0.0 couple none
  min_style       cg
  min_modify      line quadratic
  minimize        0.0 1.0e-3 10000 10000
Neighbor list info ...
  update: every = 1 steps, delay = 0 steps, check = yes
  max neighbors/atom: 2000, page size: 100000
  master list distance cutoff = 8.6
  ghost atom cutoff = 8.6
  binsize = 4.3, bins = 4 3 12
  1 neighbor lists, perpetual/occasional/extra = 1 0 0
  (1) pair lcbop, perpetual
      attributes: full, newton on, ghost
      pair build: full/bin/ghost
      stencil: full/ghost/bin/3d
      bin: standard
WARNING: Energy due to 6 extra global DOFs will be included in minimizer energies
 (src/min.cpp:225)
Per MPI rank memory allocation (min/avg/max) = 5.161 | 5.161 | 5.161 Mbytes
   Step          Temp          PotEng           Lx             Ly             Lz            Pxx            Pyy            Pzz            Fmax          Fnorm     
         0                     0   -447.3907724453529    9.778063253799999         8.5055227422        49.7307626741   -909.9523785089966   -375.8239759569862   -211.5974735782542    2.212463373950331    8.357700273285044
        10                     0   -447.4446891999899    9.771658165029898    8.503709967415135    49.71664175304244   -53.24820132813755   -6.977617201993981   -75.25382898446628     2.13194931796354     8.06684519388892
        20                     0   -447.5018116737397    9.771109393019533    8.503575075002784    49.71411867344626   -10.99906929738758   -8.415636845386791    36.63369913903078    2.034288356640641    7.745990740915528
        30                     0   -447.5546268742173    9.770899768032059     8.50340669929003    49.72275155188771   -8.156830425317235   -8.561536076196896    119.1017244541805    1.948778341154966    7.458328301666095
        40                     0   -447.6038069716597    9.770730094102461     8.50324624892467    49.73951886164681   -6.968325184917212   -7.857533521000772    178.9454289291772    1.873583953240811    7.199082777877808
        50                     0   -447.6498412371864    9.770584813623509    8.503100490534226    49.76211245119995   -5.975172315413864   -7.097756413282545    221.6178285720176    1.806482073917087    6.963810911208284
        60                     0   -447.6931148008991    9.770460909388774    8.502969521618585    49.78879720432035   -5.070918569334983   -6.356752997457818    251.3545491383861    1.745705347436115    6.748858248190952
        70                     0   -447.7339383961239    9.770356547794393     8.50285276793077    49.81827694660415   -4.235556229500602   -5.646262026862578    271.3761802357602     1.68991743916517    6.551246559825596
        80                     0    -447.772568409189    9.770270218583333     8.50274954506205     49.8495867276368   -3.460560406360404   -4.969724114703546    284.1185736660577    1.638116554622214    6.368538121169033
        90                     0   -447.8092202998495    9.770200603372601    8.502659121534629    49.88201041226464   -2.739157225966977   -4.329526783029932    291.4214941113609     1.58955088090398    6.198723563873254
       100                     0   -447.8440777526217    9.770146522652608    8.502580743750727    49.91501853364458   -2.067243562120473   -3.727093636723007    294.6739914305946    1.543653854414638    6.040134390894126
       110                     0    -447.877299076274    9.770106893151958    8.502513641085988    49.94822146695768   -1.442626183611159   -3.165411978020322    294.9216547803295    1.499996123909726    5.891375229718586
       120                     0   -447.9090218254784    9.770080705115635    8.502457044768283    49.98133391348167  -0.8596359338510556   -2.638414932456483    292.9601882717385    1.458249987782045      5.7512719795725
       130                     0   -447.9393664822272    9.770067072307301    8.502410287732252    50.01415021766119  -0.3168669018166623   -2.146965673732575     289.396413323073    1.418163834341764    5.618831782988197
       140                     0   -447.9684391557502    9.770065134900831     8.50237270600792    50.04652408459097   0.1873225341635876   -1.688989854617719     284.686254594331    1.379543008365886    5.493210430854926
       150                     0   -447.9963337414462     9.77007407990372    8.502343670420901    50.07835373894959   0.6470262519698852   -1.264613066984805    279.1836278915591    1.342233589563621    5.373695292783651
       160                     0   -448.0231336340526    9.770092416135631     8.50232261373103    50.10957575266154    1.020350788218009  -0.8633103825099447    273.2674784428103     1.30609380325536    5.259803956499784
       170                     0   -448.0489131502566    9.770118720931649    8.502308974451777     50.1401608024876    1.353995260729749   -0.517338112384894    267.1939424207494    1.281754963649872    5.151102232518095
       180                     0    -448.073740329046    9.770152279039889     8.50230146269268    50.17010635057508    1.658350405795513  -0.2280946248430292    261.1718218547641     1.26845045006955    5.047244786228899
       190                     0   -448.0976769833288    9.770192466546371    8.502299344101726    50.19942355990931    1.933268077516038  0.03361146409456534    255.2540060321656    1.255063028323736    4.947816105492368
       200                     0   -448.1207788668803    9.770238672074449    8.502302141488158    50.22812784514575    2.180762061699776   0.2713642417173233    249.4728849796791    1.241607864798861    4.852443948046663
       210                     0   -448.1430964040815    9.770290334763354     8.50230942945149    50.25623731859756    2.403279933556321   0.4875563984433866     243.849511518261    1.228099400546216    4.760798322959388
       220                     0   -448.1646753396528    9.770346944518325     8.50232082570688    50.28377173390826    2.602959106860854   0.6842104290594715    238.3965801210308    1.214551314048588    4.672586196134981
       230                     0   -448.1855573042116    9.770408029184424    8.502335978329619     50.3107516475654     2.78169452296744   0.8630513599789237    233.1197386759278    1.200976464356502    4.587546812876209
       240                     0   -448.2057802935249    9.770473172478031    8.502354583262242    50.33719794709792    2.941918440470815    1.026466875917586    228.0225786162931    1.187386963413943    4.505447883530885
       250                     0   -448.2253790854421    9.770541985797903    8.502376362814912    50.36313146769787     3.08390475331703     1.17538672275413    223.1030642766328    1.173794142607884    4.426082077180158
       260                     0   -448.2443856131321    9.770614102573051    8.502401051002565    50.38857247214592    3.211095278364103     1.31015939308548    218.3567201909119    1.160208490640444     4.34926376155522
       270                     0   -448.2628292640552    9.770689225750036    8.502428408328598    50.41354067155432    3.324329110478248    1.433951403653059    213.7801824820381    1.146639803737625    4.274826738728591
       280                     0    -448.280737168585    9.770767063944296    8.502458247857993    50.43805524216141    3.424394750046991    1.547559669815184    209.3688036590672    1.133097239146291    4.202621898221251
       290                     0   -448.2981344376851    9.770847348708186    8.502490383807229    50.46213460809804    3.512536902284026    1.651380471821378    205.1157952510588    1.119589242133647    4.132515002307679
       300                     0   -448.3150443713159    9.770929835980249    8.502524643385343    50.48579633015803    3.589810512026206    1.746236737802376    201.0140670547827    1.106123599923279    4.064384917617218
       310                     0   -448.3314886412568    9.771014302829025    8.502560868476001    50.50905709306615    3.657165217876513     1.83287941333283     197.056428149698    1.092707483283379    3.998122061085613
       320                     0   -448.3474874513538    9.771100545444019    8.502598914142405    50.53193271117681    3.715465600356605    1.911980382846083    193.2357373540485    1.079347482736474    3.933627035907799
       330                     0   -448.3630596793997    9.771188370303424     8.50263864688889    50.55443812609171    3.764478961092436    1.984134645019124     189.544083657475    1.066049634631599    3.870809350622512
       340                     0   -448.3782230066989    9.771277594568417    8.502679945627785    50.57658735895376    3.806822761528833    2.049986758194275    185.9751558281351    1.052819437820681    3.809586408597242
       350                     0   -448.3929940125295    9.771368080935861    8.502722696968657    50.59839377675683    3.842444562120836    2.109846066489991    182.5232816248717     1.03966196212453    3.749882854895418
       360                     0    -448.407388275346    9.771459688616495    8.502766779479826    50.61986993041383    3.871884218960415     2.16315019062426    179.1807674342358     1.02658178787867    3.691629346473163
       370                     0   -448.4214204614654    9.771552287954151    8.502812104728307    50.64102766053053    3.895500931212751     2.21246035254819    175.9435179174361    1.013583129627935    3.634762280058404
       380                     0   -448.4351044022644    9.771645757187732     8.50285858964847    50.66187823837998    3.913840996373873    2.257073189091367    172.8059117977195    1.000669836205888     3.57922292880559
       390                     0   -448.4484531635969    9.771739970948996    8.502906146425609    50.68243223251744      3.9263018819531    2.296703104527689    169.7612933319678   0.9878453610495037    3.524957056068568
       400                     0   -448.4614791078866    9.771834825488371    8.502954684471714    50.70269952652381    3.935003543893167    2.332296288439093    166.8049775353924   0.9751127995879474    3.471914021953763
       410                     0   -448.4741939387477    9.771930239211166    8.503004136812123    50.72268953550743    3.939963767229615    2.364126585851558    163.9339204367628   0.9624753463912378     3.42004678059659
       420                     0   -448.4866087513607    9.772026132334965    8.503054438317648    50.74241127247986    3.941515828343424    2.392820939550173    161.1440008208475   0.9499353347116476    3.369311350226088
       430                     0    -448.498734077328    9.772122429546293    8.503105529101477     50.7618732672987    3.939743548907003    2.418151999390026    158.4312444342514   0.9374949831889344     3.31966665194349
       440                     0   -448.5105799267494    9.772219062344432     8.50315734495428    50.78108359302504    3.935203687601888    2.440026773015247    155.7918235959997   0.9251563665392281    3.271074554361163
       450                     0   -448.5221558250195    9.772315972148984    8.503209821373925    50.80004988934271    3.928210613924226     2.45858999519644    153.2221852215112   0.9129213320045811    3.223499262061781
       460                     0   -448.5334708445284    9.772413105197822    8.503262897542886    50.81877939433443    3.918796675161531    2.474235466165201    150.7190281829061   0.9007915226466126    3.176906815155366
       470                     0   -448.5445336325878    9.772510406971262    8.503316520607926    50.83727897381915    3.907071515208878     2.48724369160775    148.2792773146901   0.8887684010614545    3.131264842787102
       480                     0   -448.5553524380591    9.772607826361003    8.503370641406732    50.85555514893757    3.893230405331504    2.497777843950578    145.9000806054266   0.8768532563634476    3.086542688085643
       490                     0   -448.5659351365848    9.772705311198132    8.503425210629475     50.8736140961278    3.876586116759665    2.505610338287388    143.5776521455929   0.8650472024304269    3.042711264757229
       500                     0   -448.5762892577864    9.772802803245426    8.503480182366214    50.89146153707951    3.858893377711361    2.511693312670608    141.3098295482849   0.8533511601508665    2.999742742811728
       510                     0   -448.5864219972336    9.772900273947839    8.503535514471947    50.90910304971557    3.839333036757489    2.515272857747636    139.0942798738188   0.8417659565078914    2.957610763766661
       520                     0   -448.5963402383628      9.7729976918957    8.503591170629759    50.92654398304715    3.818757169049343    2.517339425225279    136.9303601168455   0.8302923004157038    2.916290178792313
       530                     0   -448.6060505680177    9.773095021331105    8.503647116069374    50.94378953575593     3.79649474595668     2.51758298418848    134.8157058427459   0.8189308035802413    2.875757169951801
       540                     0   -448.6155592950614    9.773192231823126     8.50370331526112    50.96084465951434     3.77333746778588    2.516086199101073    132.7486806052741   0.8076819626642603    2.835988792195831
       550                     0   -448.6248724683144    9.773289296951857      8.5037597341056    50.97771412660911    3.748954637933283    2.513066980297785    130.7275397083981   0.7965461753753952    2.796963273875638
       560                     0   -448.6339958906995    9.773386184791109    8.503816344080782    50.99440251971281    3.723414270850347    2.508647361184997    128.7506619851368   0.7855237593613578    2.758659972397964
       570                     0   -448.6429351317603    9.773482872101164    8.503873110222621    51.01091423323231    3.697221182339694    2.502100291535153    126.8161909005856   0.7746149383223495    2.721059147479185
       580                     0   -448.6516955384681    9.773579342131413    8.503929991050173    51.02725343636353    3.670461763025237    2.494256341988384    124.9226085377639   0.7638198377654798    2.684141697535246
       590                     0   -448.6602822478144    9.773675577801246    8.503986961218089    51.04342417892048     3.64290743916532    2.484950102748128    123.0686207573157   0.7531385390702843    2.647889030322762
       600                     0   -448.6687001946018    9.773771558227427    8.504043989001763    51.05943031737135    3.614756694972444    2.474538504789585    121.2527411072902   0.7425710246465705    2.612283314934443
       610                     0    -448.676954124449    9.773867267191935    8.504101052667307    51.07527561023942     3.58600622116226    2.463025206600189    119.4741561757563   0.7321172351648442    2.577307412474708
       620                     0    -448.685048602621    9.773962687815468    8.504158127316085    51.09096370173886    3.556708939415008    2.450406288036009    117.7316508184321   0.7217770424382567    2.542944836201198
       630                     0   -448.6929880219902    9.774057804153371    8.504215188899959     51.1064981066176    3.526876361478648    2.436787806257633    116.0240899316815   0.7115502586525803    2.509179733104921
       640                     0   -448.7007766118148    9.774152596697647    8.504272215506671    51.12188221029811     3.49592337173752    2.422222612595435    114.3499009587619   0.7014366397166459    2.475996847176925
       650                     0   -448.7084184477221    9.774247037613099    8.504329186435433     51.1371191889131    3.465049432107995    2.406826145150649    112.7080022815208   0.6914358601107498     2.44338130577271
       660                     0   -448.7159174544119    9.774341129154587    8.504386081354298    51.15221221975065    3.433906647876641    2.390581433833948    111.0982944480115   0.6815475842402194     2.41131899768845
       670                     0   -448.7232774139628    9.774434859034002    8.504442880632528    51.16716441113671    3.402427137258381    2.373530382178491    109.5198097328558   0.6717714349489179    2.379796265057557
       680                     0   -448.7305019729911    9.774528215741823     8.50449956475155    51.18197877091632    3.370662428835606    2.355707175753414    107.9716449830665   0.6621069904510547    2.348799878584134
       690                     0   -448.7375946487396    9.774621188643385    8.504556114902096    51.19665821381852    3.338644371477232     2.33715915140557    106.4529503864267   0.6525537889703596    2.318317063638065
       700                     0   -448.7445588343179    9.774713768101149     8.50461250419276     51.2112055256658      3.3064696902529    2.317223003357528     104.962040146449   0.6431113078854536    2.288335398740095
       710                     0   -448.7513978039864    9.774805946327914    8.504668713935384    51.22562335509887    3.274084908520721    2.297143712419749    103.4988859783607   0.6337789921927881    2.258842936537452
       720                     0   -448.7581147206241    9.774897713789162    8.504724733963954    51.23991437694475     3.24152440740525    2.276669617045467    102.0631085673705   0.6245562862000696     2.22982818229962
       730                     0   -448.7647126394569    9.774989064645371    8.504780549422264    51.25408122474359    3.209098846601513    2.255364110881235    100.6540947320797   0.6154426053446479    2.201280203055943
       740                     0   -448.7711945138319    9.775079996258716    8.504836133658012     51.2681264182383    3.176517787069343    2.233219468935487    99.27048520479718   0.6064373047359319    2.173188509109923
       750                     0   -448.7775631995866    9.775170500276957    8.504891477430935    51.28205240910199    3.143825154689808    2.210949956223973    97.91236370420101   0.5975397423230968    2.145542875515793
       760                     0   -448.7838214579274    9.775260569370859    8.504946568639514    51.29586163465713    3.111062990147119    2.188209754363621    96.57912680608945   0.5887492584536916    2.118333251129068
       770                     0   -448.7899719595077      9.7753501968264    8.505001393003887    51.30955648084468    3.077574778197565    2.164994611119825    95.27001450950313   0.5800652242395853    2.091549915239865
       780                     0   -448.7960172911791     9.77543933208829    8.505055933181803    51.32313914804674    3.043188144610464     2.14086809962448    93.98274722630588    0.571487139496289      2.0651833304766
       790                     0   -448.8019599570139    9.775527994836606    8.505110168959572    51.33661173733445    3.010303518663611    2.116885636666401    92.71851209784244   0.5630138929496628    2.039224233059335
       800                     0   -448.8078023776687    9.775616199738439    8.505164098954571    51.34997651201301    2.977457114060563    2.092574312393531    91.47733750050374   0.5546447663968521    2.013663865060094
       810                     0   -448.8135468970539      9.7757039421765    8.505217710523862    51.36323568509323    2.944645152358767    2.067892020644676    90.25849457099217   0.5463790047215527    1.988493759937884
       820                     0   -448.8191957855684    9.775791211370091    8.505270986130517    51.37639139265028     2.91131352569899    2.042047964569964    89.06126277138767   0.5382155894384759    1.963705282882645
       830                     0   -448.8247512411028    9.775878001012442    8.505323897741922    51.38944569889564    2.878636962881725    2.016558252695158    87.88508220199209   0.5301534407984562    1.939290390475716
       840                     0   -448.8302153964005    9.775964304745518    8.505376452995428    51.40240056239889    2.845255576414046    1.990999932370908    86.72834144730506   0.5221922808076704    1.915241826266054
       850                     0   -448.8355903212312    9.776050118235659    8.505428640949246    51.41525781799158    2.812359973065842    1.964858496477326    85.59102677319954   0.5143312489788917    1.891552045640942
       860                     0   -448.8408780218713     9.77613544345798    8.505480445591637    51.42801928812877    2.779873480454866    1.938788979122657    84.47306685552086   0.5065694771844476     1.86821374622981
       870                     0   -448.8460804445415    9.776220285058097    8.505531863194067    51.44068688517144    2.747488536917965    1.912530520975385    83.37466917825589   0.4989061366169079    1.845220001375083
       880                     0   -448.8511994779231    9.776304639737202    8.505582883626998    51.45326249002415    2.715188731838534    1.886077356618263     82.2952308813034   0.4913403788790839    1.822564056145853
       890                     0   -448.8562369555065    9.776388504138092    8.505633497043876    51.46574792193928    2.682978482875439     1.85945496494981    81.23420778736741   0.4838713426199165    1.800239355088121
       900                     0   -448.8611946577424    9.776471875025379    8.505683694026724    51.47814494771723    2.650866744459484    1.832684412581607    80.19115242721098   0.4764981558818227    1.778239539903757
       910                     0   -448.8660743141664    9.776554749292247     8.50573346552537    51.49045529722068    2.618857533422875    1.805783836557029    79.16568197093386   0.4692199397259069    1.756558452803923
       920                     0    -448.870877605348    9.776637123900787    8.505782802739729    51.50268066029146    2.586957498629442    1.778768075516733    78.15733847260769    0.462035807960487     1.73519012514001
       930                     0   -448.8756061646608    9.776718995950725    8.505831697139499    51.51482268040807    2.555173216558789    1.751654104704955    77.16568007526158   0.4549448666031131    1.714128766623107
       940                     0   -448.8802615794932    9.776800361694564    8.505880137373911    51.52688293091914    2.523479244736369    1.724307549362797      76.189933037632    0.447946204598421    1.693368762988767
       950                     0   -448.8848453933588    9.776881219517534    8.505928117506114    51.53886294661639    2.491953147898068    1.697048094183491    75.23016035948274    0.441038916859087     1.67290464055791
       960                     0   -448.8893591085086    9.776961567028268    8.505975630996346    51.55076426761743    2.460557551953959    1.669737226480878     74.2860130569653   0.4342220990627102    1.652731127142842
       970                     0   -448.8938041867229    9.777041401698666    8.506022670375613    51.56258840160351      2.4292968158426    1.642386343279561    73.35712311146013   0.4274948415483938     1.63284310751982
       980                     0   -448.8981820507273     9.77712072108536    8.506069228381794    51.57433681903784    2.398175813791711    1.615008814048647     72.4431147681355   0.4208562313393758    1.613235617192817
       990                     0   -448.9024940855997    9.777199522811509    8.506115298008945    51.58601095440417    2.367194414123557    1.587622093730757    71.54363264288754   0.4143053529980849    1.593903837887592
      1000                     0   -448.9067416400238    9.777277800472559    8.506160870346477    51.59761219641592    2.335932863220767    1.559957728342529    70.65797599244151   0.4078415685217445    1.574843333362696
      1010                     0   -448.9109260265611    9.777355544716556    8.506205935332909    51.60914182376127     2.30522341747945    1.532598263898584    69.78595894109132   0.4014639887699309    1.556049541097624
      1020                     0   -448.9150485250162    9.777432764153197    8.506250492925579    51.62060118521457    2.274694976253414     1.50526705888964    68.92767453241677   0.3951713590499116    1.537517790122781
      1030                     0   -448.9191103830098    9.777509456859867     8.50629453690669    51.63199161592473    2.244324019754902    1.477965489905706    68.08276609852282   0.3889627676656559    1.519243815046003
      1040                     0   -448.9231128167352    9.777585620793372    8.506338061217768    51.64331441600986    2.214114266398156    1.450704286134981    67.25090245737327   0.3828373024249692    1.501223468585418
      1050                     0   -448.9270570120464    9.777661253986675    8.506381059991163    51.65457085358187     2.18406917961344    1.423493527714696    66.43177176819377   0.3767940519082895    1.483452719213037
      1060                     0   -448.9309441253762    9.777736353615058     8.50642352689025    51.66576216105695     2.15414980677745    1.396309319730431    65.62499822019437   0.3708321036735938    1.465927642831068
      1070                     0    -448.934775284683    9.777810918259476    8.506465456695775    51.67688954320799    2.124445898094212    1.369228974660438    64.83043870225335   0.3649505502807394    1.448644426055015
      1080                     0   -448.9385515909559     9.77788494431493    8.506506844302498    51.68795418983684    2.094384836547863      1.3422217926983    64.04743202984481   0.3591484879422448    1.431599320481926
      1090                     0   -448.9422741192652    9.777958412839952    8.506547686052036    51.69895713709268    2.064912324382706    1.315378111549993    63.27541121109731   0.3534249838975032    1.414788549016539
      1100                     0   -448.9459439187993     9.77803134116648    8.506587976689996    51.70989952318595     2.03574991576292    1.288573929095344    62.51513744127282   0.3477791444330183    1.398208735994817
      1110                     0    -448.949562013834    9.778103728689389    8.506627710658146    51.72078251571902    2.006765587845409    1.261865903360112    61.76625996440328   0.3422100863316032    1.381856502822957
      1120                     0   -448.9531294046224    9.778175567605942     8.50666687806264    51.73160719355423    1.977669803203758    1.234992714437069    61.02757251518481   0.3367169070368502    1.365728391828658
      1130                     0   -448.9566470681229     9.77824685830983    8.506705475975883    51.74237454313073    1.949064943245614    1.208521937227041    60.29972685597546   0.3312987065338239    1.349821199216322
      1140                     0   -448.9601159592528    9.778317603948089     8.50674350354987    51.75308567836732    1.920643850414613    1.182167365041845    59.58265663720999    0.325954627245085     1.33413186225808
      1150                     0    -448.963537011313    9.778387802940548    8.506780956224189    51.76374167748605    1.892408183541204    1.155936782440691    58.87602334014431   0.3206838076373434    1.318657344997914
      1160                     0   -448.9669111366482    9.778457453780126    8.506817829609627    51.77434358166298     1.86436086210364    1.129837795522725    58.17952917429718   0.3154853890070081     1.30339467937002
      1170                     0   -448.9702392272991    9.778526555034409    8.506854119471372    51.78489240058919    1.836504415206544    1.103877343442375    57.49290628712466   0.3103585165801007    1.288340964872622
      1180                     0   -448.9735221556362    9.778595105319093    8.506889821715257    51.79538911649106    1.808839711818163      1.0780620132181    56.81590969923296   0.3061593070756048    1.273493367864868
      1190                     0   -448.9767607749847    9.778663103264927    8.506924932399887    51.80583468892844    1.781369032963292     1.05239865537354    56.14833639964399   0.3021698683641436    1.258849119519486
      1200                     0   -448.9799559202198    9.778730547574293    8.506959447683322    51.81623005908007    1.754094083381904    1.026890774424078    55.48997298387333   0.2982248012303286    1.244405517222299
      1210                     0   -448.9831084082998    9.778797436996244    8.506993363804531    51.82657614621171    1.727017211219912    1.001544332651597    54.84060416760762   0.2943235440890488    1.230159919892574
      1220                     0   -448.9862190388027    9.778863770348504    8.507026677134061    51.83687384869302    1.700140216669867   0.9763647035302935    54.20002647232756   0.2904655462404746     1.21610974461825
      1230                     0   -448.9892885944322    9.778929546529625    8.507059384122728    51.84712404544823    1.673469332242102   0.9513522364365907    53.56804534983505    0.286650267857018    1.202252467679401
      1240                     0   -448.9923178415574    9.778994764771259    8.507091481083364    51.85732759694674     1.64700854686012   0.9265094136347969    52.94447301609741   0.2828771811621439    1.188585628619867
      1250                     0   -448.9953075306672     9.77905942415997    8.507122964597581    51.86748534607865    1.620752993011798   0.9018470442777827    52.32912897186303   0.2791457694375161    1.175106809371312
      1260                     0   -448.9982583968217    9.779123523732393    8.507153831426699    51.87759811897707    1.594703674061026   0.8773695923593298    51.72183851700697   0.2754555257791517    1.161813640668285
      1270                     0   -449.0011711600891    9.779187062551319    8.507184078429919     51.8876667256303    1.568861499218794   0.8530812886008768    51.12243204752986   0.2718059530035341    1.148703801183386
      1280                     0   -449.0040465260559    9.779250039761386    8.507213699268464    51.89769195426872    1.543259417105191   0.8285430489372434    50.53053283726275   0.2681968009076953    1.135775144113989
      1290                     0   -449.0068851871122      9.7793124566856    8.507242680852492    51.90767451705288    1.517871878947053   0.8046104637382057    49.94600288295231   0.2646277125543303    1.123025463278081
      1300                     0   -449.0096878210994    9.779374310816001    8.507271033671925    51.91761518680836    1.492653680687629   0.7809318481870542    49.36901974443549    0.261097808584678    1.110452370291114
      1310                     0   -449.0124550922214    9.779435600482323    8.507298755687401    51.92751473697884    1.467639112339597   0.7574622444405764    48.79937984069633   0.2576066382598961    1.098053736604397
      1320                     0    -449.015187651651    9.779496324741171     8.50732584428566    51.93737391905725    1.442833576406205   0.7342014723570869    48.23690127325199   0.2541537552636645    1.085827460074024
      1330                     0   -449.0178861378949    9.779556482747862    8.507352296907603    51.94719346564124    1.418238580609375   0.7111527266089345    47.68141700279551   0.2507387202451086    1.073771471538992
      1340                     0   -449.0205511764447    9.779616057206127     8.50737811142837    51.95697402538048    1.393055196922466   0.6883860449058041    47.13163435833986   0.2473610974394705    1.061882840278705
      1350                     0   -449.0231833791645    9.779675032630884    8.507403288523152    51.96671607580529    1.367704063042593   0.6656686929190962    46.58768099325155   0.2440204335696773    1.050160068573886
      1360                     0   -449.0257833447283    9.779733396616994    8.507427816112683    51.97642003195459    1.343255428929471   0.6432638531491087    46.04903859034095   0.2407162760008299    1.038600539998493
      1370                     0    -449.028351662586    9.779791173040296    8.507451701692524    51.98608648949747    1.319458588076956   0.6212048960085752    45.51722327393507   0.2374481837174521    1.027202959581238
      1380                     0   -449.0308889130756    9.779848379584122    8.507474942614476    51.99571627621146     1.29595687882908    0.599314841221932    44.99268513151476   0.2342157620116451    1.015965567259465
      1390                     0   -449.0333956654828     9.77990501131527    8.507497531813797    52.00531016513204     1.27245450575583    0.577441114357013    44.47423448191309    0.231018638732695    1.004886483071224
      1400                     0   -449.0358724782544    9.779961068144832    8.507519467380375    52.01486877099882    1.249393960191118   0.5560002663078132    43.96219714115036   0.2278564278836397   0.9939638472301876
      1410                     0   -449.0383198998877    9.780016554344851    8.507540750831978    52.02439284075506    1.226547542881075   0.5347798259511893     43.4565971963306   0.2247287617945941   0.9831959181496998
      1420                     0   -449.0407384689261    9.780071469340328    8.507561379847864    52.03388307941383    1.203917590703053   0.5137852249920049    42.95712761109181   0.2216352822676159   0.9725809258752284
      1430                     0   -449.0431287141478    9.780125812674301    8.507581352273347    52.04334014888058     1.18150616570148   0.4930206744894629    42.46355262689294   0.2185756316649825   0.9621171027436077
      1440                     0   -449.0454911548406    9.780179583044779      8.5076006641594    52.05276467529615    1.159139269173239   0.4720267958937785    41.97542781162758   0.2155496627638988    0.951802842554312
      1450                     0   -449.0478263016138    9.780232774270308    8.507619296822702    52.06215712392165    1.137185328598579     0.45168057312743      41.492323630279    0.212557601222204   0.9416366565149684
      1460                     0   -449.0501346554461    9.780285393350663    8.507637267088597    52.07151807510918    1.115443461069154   0.4316380671305746    41.01493881400845   0.2095982226836306   0.9316163125620579
      1470                     0   -449.0524167084266    9.780337439848433    8.507654573538305    52.08084815980997    1.093921585049227   0.4118328512789715    40.54305150283735   0.2083000794253863   0.9217401180095806
      1480                     0   -449.0546729440193    9.780388913538127    8.507671214373037    52.09014797903534    1.072620799820194   0.3922676789911911    40.07648404570293   0.2078367157047541   0.9120063839515922
      1490                     0   -449.0569038372693    9.780439814254519    8.507687187890101    52.09941810957732    1.051541934596407   0.3729450485452315    39.61507476474386   0.2073785908830963   0.9024134284617009
      1500                     0   -449.0591098549897     9.78049014189706    8.507702492475742    52.10865910785783    1.030685768164575   0.3538670664230473    39.15868657960195   0.2069255365166822   0.8929595765354683
      1510                     0   -449.0612914559572    9.780539896422335    8.507717126591571    52.11787151443027    1.010052840461647   0.3350354880436585    38.70720010056299   0.2064773842904351   0.8836431614823033
      1520                     0   -449.0634490911207    9.780589077836535    8.507731088764679    52.12705585696263   0.9896435339344418   0.3164518168349448      38.260507773942   0.2060339658686158   0.8744625256444469
      1530                     0   -449.0655832037618    9.780637686190891    8.507744377580806    52.13621265219284   0.9694581236626835   0.2981173666166304    37.81851018435487   0.2055951127782122   0.8654160205642554
      1540                     0   -449.0676942296899    9.780685721578951    8.507756991679413    52.14534240723338   0.9494968077058197   0.2800333019391893    37.38111372860244   0.2051606563123647   0.8565020068144247
      1550                     0   -449.0697825974138    9.780733184145831    8.507768929751709    52.15444562130884   0.9297609039991123   0.2622007422684517    36.94825537940966   0.2047304274244949   0.8477188561905176
      1560                     0   -449.0718487284073    9.780780074140027    8.507780190501862    52.16352280564098    0.910249396887377   0.2446183431471958    36.51996989121708   0.2043042561149402   0.8390649694123502
      1570                     0   -449.0738930372926    9.780826380578038    8.507790772978771    52.17257441982292   0.8905672346929989   0.2273254963882411    36.09539234950527   0.2038819721800688   0.8305386376086099
      1580                     0   -449.0759159319612    9.780872105833858    8.507800677320677    52.18160082273537   0.8715118410897992   0.2102644784005406    35.67519904410165   0.2034634093175249   0.8221382247995009
      1590                     0    -449.077917813502    9.780917259460287    8.507809901244926    52.19060256639874   0.8526777925518851   0.1934506891071512    35.25949729568107   0.2030483948540504   0.8138622107544879
      1600                     0   -449.0798990765365     9.78096184162821    8.507818443401966    52.19958017412388   0.8340657557287817   0.1768878161463895    34.84808642547406   0.2026367553295103    0.805709033240932
      1610                     0    -449.081860109329    9.781005852603389    8.507826302563782    52.20853413874463   0.8156766218854022   0.1605777480969912    34.44081805905906   0.2022283172849859   0.7976771219139339
      1620                     0   -449.0838012935034    9.781049284036555    8.507833464672913    52.21746476448989   0.7973112870026039   0.1441842178607084    34.03607440880928   0.2018225801973478   0.7897644931247589
      1630                     0   -449.0857230044281    9.781092143429333    8.507839939130626     52.2263723448291   0.7793854044202442   0.1284092103090061    33.63575896231421   0.2014196969895446   0.7819697756146137
      1640                     0   -449.0876256121991    9.781134433561816    8.507845728270674    52.23525745840877    0.761677416052728   0.1128828257802966    33.23968287154055   0.2010195012005027   0.7742914970328584
      1650                     0   -449.0895094811473    9.781176154697276    8.507850830846666    52.24412062327821   0.7441895836292839  0.09760832268726834    32.84760318507971   0.2006218143652815   0.7667281319265012
      1660                     0    -449.091374969958    9.781217307238496     8.50785524574848    52.25296231690564   0.7269231023322354  0.08258764903674741    32.45935224986968   0.2002264580365048   0.7592781384183976
      1670                     0   -449.0932224317973    9.781257891685385    8.507858971955777    52.26178299101635   0.7098785327930005  0.06782195442981563    32.07480686962101   0.1998332532912793   0.7519399661398142
      1680                     0   -449.0950522144566     9.78129790860886    8.507862008510729    52.27058308036908   0.6930560251696095   0.0533119237138561    31.69387020681849   0.1994420204201321   0.7447120607481112
      1690                     0   -449.0968646604804    9.781337358635771    8.507864354500866    52.27936300795128    0.676455512154192  0.03905791420704761    31.31646121404341   0.1990525787209567   0.7375928664664818
      1700                     0   -449.0986601072938    9.781376242440658    8.507866009047587     52.2881231880699   0.6600767810180318  0.02506007493100515    30.94250848773336   0.1986647463548331   0.7305808274641692
      1710                     0   -449.1004388873227    9.781414560740659    8.507866971298695     52.2968640282111   0.6439195229998306  0.01131840366190002    30.57194670583511   0.1982783402382172   0.7236743885688517
      1720                     0   -449.1022013281219    9.781452314292469    8.507867240422984    52.30558593018305   0.6279833630359745 -0.002167213493353282    30.20471456798957   0.1978931759556166   0.7168719956037627
      1730                     0   -449.1039477524972    9.781489503890478    8.507866815606048    52.31428929084321   0.6122678741113785 -0.01539698335723229    29.84075360346791   0.1975090676847702   0.7101720955187872
      1740                     0    -449.105678478617    9.781526130365506    8.507865696046773    52.32297450258554    0.596772586522532 -0.02837119226436373    29.48000747892279    0.197125828127391    0.703573136413137
      1750                     0   -449.1073938201359    9.781562194583895    8.507863880954165    52.33164195368921   0.5814969940854992 -0.04109019842560951    29.12242159373735   0.1967432684453107   0.6970735675047136
      1760                     0   -449.1090940863083    9.781597697446772    8.507861369544392    52.34029202858768   0.5664405542873501  -0.0535544266619065    28.76794283377238   0.1963611981970553   0.6906718390804283
      1770                     0   -449.1107795820904     9.78163263666587    8.507858161026887    52.34892510439786   0.5508269648852712 -0.06570845447875369    28.41623837493406   0.1959794250815774   0.6843662942933834
      1780                     0   -449.1124506085604    9.781666966116774    8.507854261713911    52.35754134035099   0.5361240721789026 -0.07756385712797531    28.06676350078196    0.195597758128565   0.6781548736349221
      1790                     0   -449.1141074626364    9.781700736297001    8.507849665922983    52.36614112061358   0.5217265484402609 -0.08924519568556062    27.72075299095346   0.1952160056973332   0.6720365500054629
      1800                     0   -449.1157504372828    9.781733948884405     8.50784437178168    52.37472493272479   0.5075440376367645    -0.10068137367657    27.37791686944267   0.1948339671105321   0.6660098374253893
      1810                     0    -449.117379821603    9.781766604877758    8.507838378175181    52.38329320680571   0.4935772337465881  -0.1118704693696237    27.03808007270592   0.1944514413113272   0.6600732218765804
      1820                     0   -449.1189959009635    9.781798705369729    8.507831684086954    52.39184634116792   0.4798260047847398  -0.1228117186690664    26.70112929821292    0.194068226073454   0.6542251748859749
      1830                     0   -449.1205989570929    9.781830247728282    8.507824287500952    52.40038469415479   0.4659098767587027  -0.1335921670644761    26.36618879896547   0.1936841177891603   0.6484640848936843
      1840                     0   -449.1221892687443    9.781861215730006    8.507816186286968    52.40890811096284   0.4526082162850373  -0.1439785487922036    26.03273125739338   0.1932989253622772   0.6427880211945368
      1850                     0   -449.1237671111526    9.781891633009298    8.507807384285629     52.4174170149813   0.4395148731970188  -0.1541430063755034    25.70291316592083   0.1929124423498472   0.6371956708248786
      1860                     0   -449.1253327559081    9.781921500287785    8.507797879684446    52.42591199086606   0.4266282994946353  -0.1640713623644655    25.37621918174514    0.192524452045244   0.6316856120606082
      1870                     0   -449.1268864712618    9.781950817981796    8.507787669208771    52.43439349907587    0.413924709470639  -0.1739036178190039    25.05211791242458   0.1921346280731761   0.6262562703489534
      1880                     0   -449.1284285204529    9.781979586483937    8.507776743703172    52.44286179078249   0.4014074972976148  -0.1838819053091431    24.73017305344701   0.1917426405800371    0.620905881019874
      1890                     0   -449.1299591633838    9.782007804767042    8.507765080625679    52.45131702296602   0.3890465338705362  -0.1931266111757486    24.41016215724508   0.1913485057547016   0.6156327707488468
      1900                     0   -449.1314786580145    9.782035463162286     8.50775270756017     52.4597592965933   0.3769082955211028  -0.2020830421847883    24.09182817427175   0.1909520122080826    0.610435636449415
      1910                     0   -449.1329872611095    9.782062580122266    8.507739626529183    52.46818904415218   0.3651076855193602  -0.2107931610342841    23.77704169489411   0.1905529363643328   0.6053129960176029
      1920                     0   -449.1344852268946    9.782089157111191    8.507725835694563    52.47660688804659   0.3535015474270392  -0.2192699043264109    23.46519370698564   0.1901510455296629   0.6002634545908913
      1930                     0   -449.1359728070366    9.782115194862889    8.507711333566855    52.48501330821487   0.3420935221494975   -0.227510532505424    23.15597317647247   0.1897461080266179   0.5952855465774866
      1940                     0   -449.1374502507421    9.782140694382703    8.507696118770994    52.49340871488487   0.3308858143220157   -0.235515435492726    22.84921262012816   0.1893378912395716   0.5903777738575127
      1950                     0   -449.1389178049093    9.782165656973381    8.507680189817421    52.50179348421705   0.3198800869504778  -0.2432866532485023    22.54481403651376   0.1889261605735788   0.5855386277379978
      1960                     0   -449.1403757142319    9.782190083958483    8.507663545241083    52.51016797562087   0.3090739100260765   -0.250823268750598     22.2427125860017   0.1885106789055366   0.5807665898885594
      1970                     0   -449.1418242213094    9.782213976648993    8.507646183572978    52.51853254009264   0.2984664834370031  -0.2581265882372494    21.94285964679178   0.1880912062713095   0.5760601389120857
      1980                     0    -449.143263566767    9.782237336394926    8.507628103268631    52.52688752538623   0.2880569739399092  -0.2651981643280977    21.64522305337379   0.1876674996585314   0.5714177545895629
      1990                     0   -449.1446939893837    9.782260164560844     8.50760930268728    52.53523328022724   0.2778439874261606  -0.2720396333665919    21.34976758348064   0.1872393128502284   0.5668379192085998
      2000                     0   -449.1461157261905    9.782282462518499    8.507589780096215       52.54357015089   0.2678264442246703  -0.2786524911657462    21.05645393503886   0.1868063963894117   0.5623191158284655
      2010                     0   -449.1475290125844    9.782304231656205    8.507569533666164     52.5518984816806   0.2580031779441143  -0.2850383276271264    20.76524690103969     0.18636849746391   0.5578598289286129
      2020                     0   -449.1489340824477    9.782325473373296    8.507548561461629    52.56021861600267   0.2483729718020622  -0.2911988001605835    20.47611344583654   0.1859253597846512   0.5534585448887982
      2030                     0   -449.1503311682649    9.782346189150559    8.507526861367616     52.5685308969492   0.2389366362232831  -0.2971376724662903    20.18902188732175   0.1854767234781636   0.5491137545499006
      2040                     0   -449.1517204996406    9.782366384847826    8.507504409784604    52.57683537077462   0.2297969672764939  -0.3032644573379464    19.90207217456187   0.1850223327452231   0.5448235782878506
      2050                     0   -449.1531023028125      9.7823860520385    8.507481216990522    52.58513185350508   0.2205273442443947  -0.3087219422626286    19.61710837188303   0.1845619356690961   0.5405863183392661
      2060                     0   -449.1544768071265    9.782405190996595    8.507457291491571    52.59342083375695   0.2116943383090427  -0.3139813429933298    19.33483523605167   0.1840952525396246   0.5364006917859692
      2070                     0   -449.1558442410123    9.782423812430972    8.507432629177375    52.60170297953408   0.2030361254860029  -0.3190313128682893    19.05503286902139   0.1836219993528479   0.5322654457161963
      2080                     0   -449.1572048320713    9.782441917018922    8.507407226939865    52.60997879322683   0.1944715597223969   -0.323948952506849     18.7772802704178   0.1831418921081645   0.5281791354616449
      2090                     0   -449.1585588069065    9.782459495585762      8.5073810737487    52.61824846770461   0.1861508012810384   -0.328586796886524    18.50071569046726   0.1826546457262838    0.524139968285662
      2100                     0   -449.1599063917236    9.782476560082848    8.507354175232225    52.62651235075772   0.1780380346845642  -0.3329914754341558    18.22652498037725   0.1821599700097448   0.5201467009219568
      2110                     0   -449.1612478127614    9.782493111508378    8.507326527813207    52.63477094827004   0.1701009378639836  -0.3371906505592482    17.95436181747966   0.1816575680387958   0.5161979076317925
      2120                     0   -449.1625832960455    9.782509150889846    8.507298127800684    52.64302467409228   0.1623401384550236  -0.3411843243514664    17.68407433333594   0.1811471404974261   0.5122921219383531
      2130                     0    -449.163913067561    9.782524679367386    8.507268971391259    52.65127390649906   0.1547550602536066  -0.3449737562394114    17.41558692307797    0.180628384151615   0.5084278624470097
      2140                     0   -449.1652373534066    9.782539698118041    8.507239054590279    52.65951901066278    0.147344626341278  -0.3485606995369629    17.14885383266618    0.180100991118295    0.504603642764359
      2150                     0   -449.1665563800374    9.782554202200631    8.507208373345305    52.66776032332663   0.1399111311821089  -0.3519262520936656     16.8835045879458   0.1795646486804312   0.5008179233010643
      2160                     0   -449.1678703751368     9.78256818513969    8.507176925086094    52.67599799072411   0.1328504409911968  -0.3551019674418541    16.61972007149522   0.1790190428421539   0.4970691012624858
      2170                     0   -449.1691795665324     9.78258166205212    8.507144703845528     52.6842324772643   0.1259593348900661  -0.3580858597908665    16.35786851740448   0.1784638479448697   0.4933558014177581
      2180                     0   -449.1704841826388    9.782594633927166     8.50711170419793    52.69246423072966   0.1192367936736131  -0.3608783114819587    16.09774968439861   0.1778987322457949   0.4896765718655433
      2190                     0   -449.1717844528867    9.782607101841231    8.507077920590911    52.70069364640356   0.1126818682331184   -0.363480096512848    15.83927691849369   0.1773233594032064   0.4860299374482057
      2200                     0   -449.1730806079162    9.782619066865449     8.50704334722178    52.70892110249802   0.1062930807472685  -0.3658927584589614    15.58240377855829   0.1767373873716273   0.4824144145322879
      2210                     0   -449.1743728798053    9.782630528136698    8.507007976449252    52.71714696216647  0.09971744280049144  -0.3682823031423516    15.32664855676741   0.1761402919874817   0.4788283450387348
      2220                     0   -449.1756614988663    9.782641420235132    8.506971789289871    52.72537025536269  0.09324071967420795  -0.3702822234411913    15.06787148051498   0.1755278824764681   0.4752663546434649
      2230                     0   -449.1769466985774     9.78265179588657    8.506934798707382    52.73359063084123  0.08734730860079708   -0.372069015194476    14.81318422796078   0.1749033733963404   0.4717297032128711
      2240                     0   -449.1782287178192    9.782661670644124    8.506896995540082    52.74180975835851  0.08159708639155043  -0.3737101227366629    14.56139371104217   0.1742669524821525   0.4682179931404443
      2250                     0   -449.1795077975593    9.782671042824099    8.506858369821709     52.7500284946332  0.07585742289708097  -0.3751671555260772    14.31138553998641   0.1736182252185439   0.4647298799480351
      2260                     0   -449.1807841824207    9.782679894868828     8.50681891467984    52.75824717076546  0.07024814370623271  -0.3764426620798094    14.06235492765898    0.172956797584213   0.4612636993097846
      2270                     0   -449.1820581211804    9.782688230856197    8.506778623320487    52.76646597046864  0.06498265111235632  -0.3775457121483213    13.81481858481327    0.172282274026128   0.4578179120039823
      2280                     0   -449.1833298646593    9.782696068391537    8.506737483432204    52.77468555585772  0.05986406694921889  -0.3784950199552725    13.56919816271825   0.1715942426513388   0.4543912070801261
      2290                     0   -449.1845996666837    9.782703408485888    8.506695479060788    52.78290644912437  0.05490737854791168  -0.3793302757529549    13.32492584611073   0.1708922854720961   0.4509821562267111
      2300                     0   -449.1858677850881    9.782710251509222    8.506652603793871    52.79112909548511  0.05009465368500968  -0.3799497932611769    13.08219028693661   0.1701759774316215   0.4475892068863843
      2310                     0   -449.1871344821942    9.782716597498576    8.506608846718553    52.79935397844773  0.04543041828426627  -0.3804055318346126    12.84085885406191   0.1694448826814941   0.4442108459012167
      2320                     0   -449.1884000251974    9.782722446611334    8.506564195761706    52.80758154411512   0.0409131389443104  -0.3806989248396371    12.60086869426957   0.1686985560849103   0.4408455382749243
      2330                     0   -449.1896646799588    9.782727797048974    8.506518587653932    52.81581095311959   0.0366433452613952  -0.3811952338489799    12.35857958452628    0.167934534233596   0.4374893370697681
      2340                     0    -449.190928718351    9.782732659482072    8.506472046871163    52.82404232084649  0.03241620744094478  -0.3813593631866604     12.1194539654371   0.1671544339347777   0.4341425440304552
      2350                     0   -449.1921924257433    9.782737031710228    8.506424557809327    52.83227670566782  0.02835604181139998  -0.3813304151321544    11.88236710581102   0.1663577622045414   0.4308038116914103
      2360                     0   -449.1934560944399    9.782740913394136     8.50637610552173    52.84051505456396  0.02443303747371946  -0.3809876833394646    11.64695344842981   0.1655440128885529   0.4274717623718962
      2370                     0   -449.1947200242984    9.782744301514601    8.506326685180223    52.84875799871857  0.02063886412265023  -0.3804985266023277    11.41287692449516   0.1647126722655427   0.4241449349517016
      2380                     0   -449.1959845234281    9.782747194495943    8.506276280049354    52.85700605285859  0.01694714942455663  -0.3798828442883642    11.18003041187083   0.1638632156963842   0.4208217157007477
      2390                     0   -449.1972499089301    9.782749592096462    8.506224873033897    52.86525970794834   0.0131817555142297  -0.3793203916850179    10.94836119766562   0.1629951039698915   0.4175004612701715
      2400                     0   -449.1985165076716    9.782751507117686    8.506172452710075    52.87351943685184 0.007395008805910023  -0.3809126615752925    10.71752944012132   0.1621077809147298    0.414179449591043
      2410                     0   -449.1997846560166    9.782753150291187    8.506119171886629    52.88178552276712 -0.03009528941426423   -0.413833746059043    10.48646628710924   0.1612006555459943   0.4108566586054953
      2420                     0   -449.2010546899747    9.782759086469428    8.506068974657806    52.89005952999954  -0.7442977086676998   -1.119955070014422    10.22893792327126   0.1602727065012942   0.4075257584951153
      2430                     0    -449.202325769969    9.782889256197844     8.50612566375017    52.89836584082776     -19.065394209483    -19.3403927478391    9.249361289195546   0.1593113322658148   0.4040681471053942
      2440                     0   -449.2035996526245    9.782938717443132    8.506111809433506    52.90666433267226   -26.05917720148848   -26.29201097839119    8.735243838932446   0.1583351843317831   0.4006844153192645
      2450                     0   -449.2048772501363    9.782946458021526    8.506061133948554    52.91496332385967     -27.235444320887   -27.45656480130263    8.460950797653451   0.1573407410645563   0.3973284349581198
      2460                     0   -449.2061582596264    9.782953234420694    8.506008889724528    52.92327144577179   -28.34690897005012   -28.55652475446792    8.190226440928257   0.1563232686232363   0.3939625222270707
      2470                     0   -449.2074431055293    9.782959098151737    8.505955091589428    52.93158928254731   -29.40125736384288   -29.59953950993142    7.922739038304781   0.1552820587601161   0.3905847632014102
      2480                     0    -449.208732232538    9.782964090034447    8.505899742879825    52.93991743838273   -30.40474243143869   -30.59191081251624    7.658130889048842   0.1542163731915606   0.3871932048036658
      2490                     0   -449.2100261083192    9.782968243624619    8.505842830506817    52.94825626373823   -31.36266318666289   -31.53896952639066      7.3958254478797   0.1531254454734393   0.3837858003080005
      2500                     0   -449.2113243960029    9.783005624508183    8.505813800133655    52.95661326331128   -37.07635736541128   -37.21494174015632    6.938237696137198   0.1520031141380173   0.3803300480238143
      2510                     0   -449.2126301136562     9.78297608383992    8.505725949211662    52.96496927185489   -33.43164720067453   -33.58454874475406    6.868170477594045   0.1508641884778603   0.3769132561272626
      2520                     0   -449.2139413716466    9.782975066089381    8.505661830818037     52.9733441047067   -33.88203032580129   -34.02634417754813     6.62970156854504   0.1496929833257459    0.373448255506527
      2530                     0   -449.2152594250894    9.782977157480515    8.505599405471425    52.98173344273033   -34.84575317785845    -34.9785070509253     6.37074137737071   0.1484923972750095   0.3699552043454978
      2540                     0   -449.2165850262134    9.782977161231987    8.505534124313339    52.99013703890854   -35.59114038117503    -35.7133427119315    6.121556971988587   0.1472623301730067   0.3664365720502744
      2550                     0   -449.2179187946185    9.782976764055059    8.505467392304404    52.99855606899018   -36.35673339734746   -36.46810688612322    5.872240266619417   0.1460014351205924   0.3628883149387864
      2560                     0   -449.2192614521448    9.782975538921084    8.505398779859773    53.00699135573542   -37.08339286424441   -37.18401581957637    5.625210308346952   0.1447086797652048   0.3593082320092031
      2570                     0   -449.2206137597402     9.78297359558179    8.505328316208482    53.01544389348543   -37.78769142347345   -37.87754477215987    5.379750563057939   0.1433828571767621   0.3556934800694778
      2580                     0   -449.2219765415123    9.782970929704771    8.505255925618565    53.02391473055945   -38.47026263060881   -38.54932072348306    5.135804811700247   0.1420226999457769   0.3520411647010966
      2590                     0   -449.2233506902933    9.782967520359493     8.50518151091061    53.03240500212676   -39.12954916103466   -39.19779268362966    4.893406997617914   0.1406268516197684    0.348348226107715
      2600                     0   -449.2247371760997    9.782963367901658    8.505104985257454    53.04091595466747   -39.76715522649829   -39.82455124486125    4.652467109235321   0.1391938453756299   0.3446113764341302
      2610                     0   -449.2261370582382    9.782958467621746     8.50502624834132    53.04944894663085   -40.38551922270738    -40.4310236676533    4.411941905623912   0.1377220943008126   0.3408271407993341
      2620                     0   -449.2275515158491    9.782952779693323    8.504945190220131     53.0580040084786   -40.98395630914293   -41.01793057702857    4.172705747786334   0.1362098829176432   0.3369914670709727
      2630                     0   -449.2289818461248    9.782946319972456    8.504861678118226    53.06658391776524   -41.56243774207928   -41.58538831876189    3.935512997524246   0.1346552906300828    0.333100295698427
      2640                     0   -449.2304294750716    9.782939041211039    8.504775549653077    53.07519057174684   -42.12096856453062   -42.13115070288905    3.698414861708399   0.1330562423507819   0.3291488661985404
      2650                     0   -449.2318960110874    9.782930874862954    8.504686609138655    53.08382505198489   -42.65223604861446   -42.65093224614237    3.462862584533064   0.1314104479892639   0.3251324103186184
      2660                     0   -449.2333832503803    9.782921832609874    8.504594668992642     53.0924905258737   -43.15866679728235   -43.14602825966977    3.229366301040465   0.1297153184117306   0.3210453466054956
      2670                     0   -449.2348931651921    9.782913254950913    8.504500700385979     53.1011906171061   -43.83529127670985   -43.80793235270177    2.988828476900269   0.1279675160506343   0.3168802991397142
      2680                     0   -449.2364278223015    9.782912078090241    8.504410487727739    53.10993025700881   -45.65942614596143   -45.60966059013133    2.699872003748505   0.1261609335068241   0.3126231538798375
      2690                     0   -449.2378417304615     9.78188074898779    8.503434759797999    53.11776197200456    97.35284697766399    96.42525894404072    8.535688525894846   0.1248242621588139   0.3104304104096653
      2700                     0   -449.2391729751706    9.783337161075551    8.504614842255453    53.12547495384389   -109.1146452268179    -108.730324368022  -0.3538410844094581    0.122674623897032    0.304643394042534
      2710                     0   -449.2406170289582    9.782319672274868    8.503615527220791    53.13301023502716    32.42327589557642    35.94868239937399    5.531430353113699   0.1213398422837867   0.3018126412296032
      2720                     0   -449.2420777870869    9.782941552011648    8.504142079129981    53.14105155839628   -58.65819909470209   -64.05009247167162    1.300848494987097   0.1192756351892916   0.2967614171904178
      2730                     0   -449.2436393230541    9.782690583502973    8.503569904579873    53.14921938310523   -20.51387927807808    5.081021149956194    3.369317203945101   0.1174723896425603   0.2928649112205476
      2740                     0   -449.2451664377841    9.782227437967681    8.503298757926611     53.1571305694359    37.53276423881746    35.39755078531261    5.086032401943211   0.1157020033596571   0.2892009469978362
      2750                     0   -449.2468308680897    9.782665885421924    8.503638218659889    53.16574765503145    -28.0479688551413   -37.81405420506364    1.913583090974256   0.1133468981547862   0.2835733256577938
      2760                     0   -449.2485865758982    9.782884524069798    8.503476091839589    53.17459725750853   -56.79643633420744   -37.88006323423286    1.086846901974237    0.111017326074427   0.2785264680223976
      2770                     0   -449.2503299204927    9.781825673965539    8.502513336252532    53.18301061288112    87.40405085328214    96.88816215492444    6.857760416384044   0.1092061200666184   0.2752211243828054
      2780                     0     -449.25205904797    9.782584645554094    8.503192725174889    53.19134624697875   -24.90840762201176   -31.48370225937324    1.526759511335735   0.1065482577615161   0.2687224230511586
      2790                     0   -449.2539697731722    9.782314022413603    8.502883234646767    53.20019354858216    8.491127121763389   -5.195111533245413    2.609054016727385   0.1041270978013098   0.2635802240299113
      2800                     0   -449.2556444277303    9.782506195356163    8.502787393387434    53.20775729678341   -18.56759496115363   -14.71740111796013     1.61180253092238   0.1017735820322281   0.2584907571144474
      2810                     0   -449.2572351626424      9.7822147265979    8.502653135713581    53.21468381116053    14.61363930305169   -9.917006667968213    2.347507306274713  0.09979337556996237   0.2544042423851127
      2820                     0    -449.259300426832    9.782444521481889    8.502738793674963    53.22354787478819   -22.36412018059382   -51.36268747363537   0.4418604611958475  0.09681264802039524   0.2478196324167583
      2830                     0   -449.2615020380888     9.78304679060299    8.502193475044672    53.23271974459642   -92.85647760809496   -13.14161165036416  -0.5181740415447624  0.09363322266085455   0.2421119850885368
      2840                     0   -449.2630980664671    9.782500966142823    8.502263272509641    53.23889399202843   -33.10870336230953   -33.84033990991109   0.1514839028398736  0.09151456877406772   0.2368338267940111
      2850                     0   -449.2643373929085    9.782452316116652    8.502118914834828    53.24358954104446   -28.74837645252772   -29.00420702826141   0.2560981964639533  0.08984870372221358   0.2331998526270694
      2860                     0   -449.2649848809788     9.78155182693677    8.501305415956782    53.24583487376727    95.71680900633284    92.30599753701911    5.600189688209805  0.08957755604630585   0.2327856642270811
      2870                     0   -449.2656626706576    9.782565118642349    8.502087926148443    53.24846220965566   -46.86060649871229   -44.41393997264407  -0.5378809856013775  0.08800319096009948   0.2291615506437222
      2880                     0   -449.2662229751442     9.78202375643396    8.501863125365785    53.25036234886904    21.92769655137699   -10.87112959203919    1.659135140090693  0.08750618814927544    0.227894680484358
      2890                     0   -449.2674869681186    9.782239622662241    8.501806513350177    53.25486493384003   -8.212608552547321    -24.0240130221422   0.5627636398351541  0.08559840997747367   0.2239622624161723
      2900                     0    -449.268813667538    9.782360807111765    8.501908682520305    53.25944634515844   -30.36224998573872   -59.22776920765531  -0.7010764244596732  0.08373434884166162    0.219783944398393
      2910                     0   -449.2703145780409    9.781487299142499    8.500779115562358    53.26426930050825    93.52303930555954    93.16166866402097    5.210765995972242   0.0823268081123925   0.2169392009654636
      2920                     0   -449.2714105790157    9.781806785070442    8.501102500824235    53.26782635837137    43.34452898105091    26.40399701218213    2.487014039263536  0.08044306652422932    0.212674196616205
      2930                     0   -449.2724465937903     9.78147136018096    8.501383958849514    53.27107563874922    74.31056409914356   -22.74877899380823    2.018997401496438  0.07897969317180495   0.2097598707610559
      2940                     0   -449.2734135764155     9.78155787081517    8.501596408529069    53.27406457407573     55.1754370515394   -68.93637847546371   0.6467614678366107  0.07762201986941943   0.2072513136231617
      2950                     0   -449.2745418952828    9.782001464236174    8.501038311029857    53.27736573133112    7.288189163722077   -15.57035318630806   0.7815774696555308  0.07619629551046886    0.203234462157893
      2960                     0   -449.2758136161261    9.782220641736446    8.500905904618763    53.28110122038522   -22.57495054098672   -20.69162810399848  -0.2277905044416662  0.07415823084846433   0.1993177517982461
      2970                     0   -449.2769789949594    9.781159530444318    8.500902751917133    53.28427787877515    101.8423851843486    -20.8604812501983    2.593454410993146  0.07308783539064657   0.1977780975860655
      2980                     0   -449.2779722530924    9.782195559560959    8.500456220761635    53.28699032105374   -20.61783944637405    7.548734542454456   0.6391308982912294  0.07167588912541348   0.1935075354468753
      2990                     0   -449.2786975006325    9.782348529177844    8.500152607852629    53.28891429494632   -36.65768556196797    35.59966399177981   0.7663590690996099  0.07060868508122783   0.1909247355932761
      3000                     0   -449.2797025119843    9.781005709861349     8.50117201104371    53.29161805613722    101.7836022157933   -101.4685420079178    0.600232764492028  0.06907053856212483   0.1898190953081012
      3010                     0   -449.2806572881168    9.782363984279883    8.499868100555947    53.29397494739467   -42.79289642244397    41.42277353841021   0.8254587790313149  0.06812896759387904   0.1857087450511029
      3020                     0   -449.2811037150712    9.781448683238999    8.500596633129966    53.29514353093309     52.1599621533616   -52.28135891069833   0.3791195540700974  0.06701943561668107   0.1834260945860094
      3030                     0   -449.2815597784482     9.78222346894858    8.499854628149533    53.29621987477169   -30.09355802469139     29.8745313738347   0.8084872106516916  0.06691741456371152   0.1827143448988806
      3040                     0   -449.2820349630758     9.78140496315751    8.500500476458104    53.29744566371335    54.46637287946727    -54.6173983788258   0.3379705415890457   0.0657648671980144   0.1805742923107446
      3050                     0   -449.2824798831859    9.782196369919337    8.499744350984965    53.29847179154069   -29.53170471758962    29.29947618259876   0.7650448832233024  0.06567527771055737   0.1797060412838259
      3060                     0   -449.2829477467329    9.781332559317772    8.500428315498029    53.29966235279478    59.74496273650845    -59.8388316422099    0.309623264113228  0.06454736841816734   0.1777789873908205
      3070                     0    -449.283384150766    9.782169145414601    8.499633539752814    53.30064899115109   -29.00187950074783     28.7537617723355   0.7213682301412665  0.06445341934871607   0.1767191287445011
      3080                     0   -449.2838240824986    9.782338476511134    8.499424623219642    53.30172396277009   -47.92157913963379    47.07914475482423   0.5145030498491714  0.06364982794082227   0.1753022365753308
      3090                     0   -449.2843003307729    9.781641624829225     8.49994903482337    53.30283407749055    23.80493672364229    -23.5559378933992   0.6647644091346755  0.06319301555803071   0.1740198473979367
      3100                     0   -449.2848450315482    9.782509357179537    8.499117354934764    53.30413652825854   -68.61632257871591    67.67379300613229   0.5554035946741106  0.06236325369713019   0.1728022610749249
      3110                     0   -449.2852932960862     9.78165317018536    8.499783716911784    53.30515695137449    19.83037663074344    -19.5974775319672   0.6423023533334806  0.06187844631141173   0.1707766201557791
      3120                     0   -449.2857805741947    9.782483988526833    8.498990808319368    53.30630916599144   -68.62142572310873    67.67843075885335   0.5383262913599508  0.06113120671314902   0.1698108207665877
      3130                     0   -449.2862325934334    9.781695793914912    8.499595907609931    53.30732451347995    12.63456501911434   -12.44975306154058   0.6337205248693771  0.06064993510134026   0.1677384554812238
      3140                     0   -449.2866812435441    9.782433439195653    8.498888629053962    53.30838046226458   -65.99959177089471    65.01262033927276   0.4917453378879929  0.05991008394754733   0.1668295773629377
      3150                     0   -449.2872184797878    9.781416648811954    8.499675791986215    53.30958939213967    38.89589275400438   -38.49676255148159   0.4924922980650435  0.05920828003818257   0.1641395886538041
      3160                     0    -449.287573635491    9.782357576741552    8.498806098114807    53.31041693739302   -60.81252164863902    59.80322569352168    0.434398195793968  0.05868727208766081   0.1637827097188375
      3170                     0   -449.2883441719774    9.781453324064943    8.499454064321371    53.31214317406771    31.43843248028973   -31.27985311554438   0.4621276638712872  0.05771588290505179   0.1602237737231641
      3180                     0   -449.2891345525924      9.7826852843254    8.498247180802098    53.31397060219923   -100.3359172242837    99.11117742157828    0.644880841234158  0.05687074163659149   0.1608762729373324
      3190                     0   -449.2900474164669     9.78112527365327    8.499419534404918    53.31602812772011     60.3118653867959   -57.26111987036912   0.2993277317406745   0.0552448304536091   0.1546347767158246
      3200                     0   -449.2905092298814    9.783094962957906       8.497639547437    53.31715586838543   -148.2036512845563    146.4019330286527   0.6309955079725438   0.0550229650259573   0.1601086666360121
      3210                     0    -449.291617626092     9.78151484182772    8.498590876151827    53.31955070554455    17.72479506278376    16.88855166766884    1.061615602770867  0.05336193140107627   0.1487799446483492
      3220                     0   -449.2921561117092    9.782815044084529    8.499510893161615    53.32113114680335   -164.6580898668544   -148.8505800690716   -6.384725176098116  0.05178500978441383   0.1462041985299823
      3230                     0   -449.2928891790335    9.781927741306562    8.498824724941372    53.32256927307698   -47.85479690949725   -53.40736887676692   -1.783296842128131  0.05144546645029512   0.1441747523101127
      3240                     0   -449.2936734938741    9.781597410797836    8.498384748382163    53.32433468643708   -5.274448765677894   -5.407044864737881   0.4069795786287669   0.0508957401117968   0.1440185834097019
      3250                     0   -449.2946347702685    9.781207811257955    8.498187332092732    53.32656251848509    38.12271440737713    5.440456426152374    1.427086125212931  0.04959808421971557   0.1393355943726023
      3260                     0   -449.2950417516594    9.781887253985657    8.497660808500118    53.32761580863534   -37.84244887862768    57.06779897764978   0.6094315212233848  0.04866346000922805   0.1387838507351454
      3270                     0   -449.2955938881288    9.781305118413023    8.498173735611447     53.3289263107259    17.58441198381836   -19.40752158444641   0.4999151826124857  0.04827716529831094   0.1366823932461545
      3280                     0   -449.2963158636998    9.781399580964415    8.497694742312449    53.33067048866862    9.017038118591058    27.25850647744169     1.24463773472767  0.04733951603357046   0.1328736937849465
      3290                     0   -449.2971603835503    9.781329835362424    8.497802400237823    53.33283666220193     6.98868302590812   -9.636823682088448   0.2921535523115617  0.04599054392028806   0.1291545979653348
      3300                     0   -449.2978070574601    9.781501696748437    8.497238815182586    53.33448432629626   -9.308107876260697    48.02931002107181    1.303161881469669  0.04535206662879503   0.1275816896534022
      3310                     0   -449.2983514983025    9.780995093464723    8.497753507856331    53.33596648643341    36.26310105048603   -31.11719159315182   0.5151640622644071  0.04446743888158905   0.1258606793479357
      3320                     0   -449.2986664888835    9.781512839600063    8.497268568088355    53.33684065740947   -20.42205940003479    18.93666624913227   0.1296701717558212  0.04375751663614676   0.1240377072401424
      3330                     0   -449.2992463958137    9.781053965762336    8.497512346528989    53.33840722778243    24.07987350585351   -24.71199912589645   0.3515751782728916  0.04320401962868885   0.1218232480799738
      3340                     0   -449.2997987875091    9.781430120361222    8.497062233314773    53.33996819104105   -19.03589350798286    15.14998362840697    0.198507786434874  0.04235358235984988   0.1192183167749608
      3350                     0   -449.3004642701405    9.781596062358769     8.49674696914817    53.34193838691934   -40.90748366346231    35.43698547138869  0.04752148843843776  0.04129335315165437    0.117927856082569
      3360                     0    -449.301017986031     9.78129313103722    8.497519854540236    53.34366041750893   -26.57026738952256   -85.49125961580378   -2.276284699187994  0.04023527207743327   0.1139449101736291
      3370                     0    -449.301536948829    9.780631914997002    8.497268485522145    53.34520123846249    52.80759824005232   -55.63055011958733 -0.06720192283214475  0.03965142746246054   0.1130957930395361
      3380                     0   -449.3017966966445    9.781692799075335    8.496250062900263    53.34597399140092   -59.70866748098115    59.53739424141425   0.4468489192224622  0.03976885869497645   0.1131016541848169
      3390                     0   -449.3023680292784    9.780059497823801     8.49742513390613    53.34789647598934     108.040671384596   -96.77284431284841   0.4266484059696539  0.03870327244341703   0.1135893177989096
      3400                     0   -449.3029187131364    9.781454520798329    8.496082952250426    53.34965455164815   -42.45042553039043    48.45561634781933   0.3518124045422902  0.03796165137484624   0.1081735802187111
      3410                     0   -449.3032513562485    9.781695958489887    8.495786173741223    53.35077894134282   -70.97693727610208    73.33736585692408   0.6442545672044753  0.03785862719621808   0.1084549981638925
      3420                     0   -449.3035996864678    9.780670280796917    8.496509041832374    53.35197591603978    34.90387468571524   -21.93836368196211   0.4528011529970124  0.03697857171826149   0.1037951229117221
      3430                     0   -449.3040718706078    9.781111768449799    8.496326430684787    53.35368691916432   -22.54831713211984   -21.80530274080862  -0.6346151249817265  0.03629650068645501   0.1016559768718556
      3440                     0   -449.3045043979664    9.781005081520545    8.496132117239611    53.35534869966616   -12.21151523777845   -9.252914058320863  -0.5404668961976987  0.03528488634312043   0.1014752300945814
      3450                     0   -449.3050216286962    9.780923979945522    8.495616993803322    53.35722815108675  -0.1151784195014825    44.15782373577329    1.065465098441094  0.03486359867796504  0.09922149073353936
      3460                     0   -449.3053835001146    9.781058789566792    8.495776689025895    53.35862778052031   -25.80733275348298    5.072590998932567  -0.1770321587940934  0.03429832033335863  0.09604377115661533
      3470                     0   -449.3057360823668    9.781009030162842    8.495513389900115    53.36004390466099   -20.74830728900957    27.68437583017047   0.7988363155513075  0.03427377725598724  0.09689458459978637
      3480                     0    -449.305987209375    9.779960430348853    8.496393832430936      53.361176768733    85.10424197731508   -87.87307390532256  0.07963983689640314  0.03334247757078958  0.09672240041747662
      3490                     0   -449.3063017136574    9.780909559920586    8.495430591369665    53.36246202698578   -16.47372343198857    17.95630414291357   0.1031566489096544  0.03289889087107392  0.09233565359249066
      3500                     0   -449.3065678824706    9.781173033944166    8.495110240706573    53.36357159765176    -47.1998903021699    46.35596922825606   0.4238379936496784  0.03283701457763998  0.09223850087047909
[...]
Histogram: 1 0 0 0 0 0 0 0 0 0
FullNghs:         9918 ave        9918 max        9918 min
Histogram: 1 0 0 0 0 0 0 0 0 0

Total # of neighbors = 9918
Ave neighs/atom = 159.96774
Neighbor list builds = 0
Dangerous builds = 0

# Minimize the with fire
  unfix           frb
  min_style       fire
  minimize        0.0 1.0e-3 10000 10000
  Parameters for fire:
    dmax  delaystep dtgrow dtshrink alpha0 alphashrink tmax tmin   integrator   halfstepback   abcfire  
     0.1     20      1.1     0.5     0.25     0.99      10  0.02 eulerimplicit      yes          no     
Per MPI rank memory allocation (min/avg/max) = 4.037 | 4.037 | 4.037 Mbytes
   Step          Temp          PotEng           Lx             Ly             Lz            Pxx            Pyy            Pzz            Fmax          Fnorm     
      6725                     0   -449.3173528513435    9.777954653247209    8.488769711814401    53.45410345257557  -0.1992635859821712  -0.1927336467509372 -0.008378908496604411 0.0001965209185714925 0.0004819121553444186
      6726  1.183023709606785e-08   -449.3173528515282    9.777954653247209    8.488769711814401    53.45410345257557  -0.1989237103573567  -0.1934064055035043 -0.008244693529123793 0.0001964925346955811 0.0004815893046041678
Loop time of 0.00105086 on 1 procs for 1 steps with 62 atoms

81.2% CPU use with 1 MPI tasks x no OpenMP threads

Minimization stats:
  Stopping criterion = force tolerance
  Energy initial, next-to-last, final = 
     -449.317352851343  -449.317352851343  -449.317352851528
  Force two-norm initial, final = 0.00048191216 0.0004815893
  Force max component initial, final = 0.00019652092 0.00019649253
  Final line search alpha, max atom move = 0 0
  Iterations, force evaluations = 1 2

MPI task timing breakdown:
Section |  min time  |  avg time  |  max time  |%varavg| %total
---------------------------------------------------------------
Pair    | 0.00076691 | 0.00076691 | 0.00076691 |   0.0 | 72.98
Neigh   | 0          | 0          | 0          |   0.0 |  0.00
Comm    | 5.985e-06  | 5.985e-06  | 5.985e-06  |   0.0 |  0.57
Output  | 0          | 0          | 0          |   0.0 |  0.00
Modify  | 0          | 0          | 0          |   0.0 |  0.00
Other   |            | 0.000278   |            |       | 26.45

Nlocal:             62 ave          62 max          62 min
Histogram: 1 0 0 0 0 0 0 0 0 0
Nghost:            521 ave         521 max         521 min
Histogram: 1 0 0 0 0 0 0 0 0 0
Neighs:              0 ave           0 max           0 min
Histogram: 1 0 0 0 0 0 0 0 0 0
FullNghs:         9918 ave        9918 max        9918 min
Histogram: 1 0 0 0 0 0 0 0 0 0

Total # of neighbors = 9918
Ave neighs/atom = 159.96774
Neighbor list builds = 0
Dangerous builds = 0

next nr
jump ${simname}.in loopmin
jump LCBOP.in loopmin

# Minimize the with cg + box/relax
  fix             frb all box/relax tri 0.0 couple none
  min_style       cg
  min_modify      line quadratic
  minimize        0.0 1.0e-3 10000 10000
WARNING: Energy due to 6 extra global DOFs will be included in minimizer energies
 (src/min.cpp:225)
Per MPI rank memory allocation (min/avg/max) = 5.162 | 5.162 | 5.162 Mbytes
   Step          Temp          PotEng           Lx             Ly             Lz            Pxx            Pyy            Pzz            Fmax          Fnorm     
      6726  1.183023709606785e-08   -449.3173528515283    9.777954653247209    8.488769711814401    53.45410345257557  -0.1989237102098172  -0.1934064056073423 -0.008244693498016943 0.0001964925346871693 0.0004815893046017793
      6727  1.183023709606785e-08   -449.3173528517069    9.777952629001804    8.488768003199477    53.45410299391911  0.08189524029276209   0.0795604456717162 0.005355321158130543 0.0001998205146494669 0.0004836264224972272
Loop time of 0.00148447 on 1 procs for 1 steps with 62 atoms

87.0% CPU use with 1 MPI tasks x no OpenMP threads

Minimization stats:
  Stopping criterion = force tolerance
  Energy initial, next-to-last, final = 
     -449.317352851528  -449.317352851528  -449.317352851707
  Force two-norm initial, final = 0.00096387518 0.00062150293
  Force max component initial, final = 0.00055087114 0.00022678902
  Final line search alpha, max atom move = 0.18153066 4.116916e-05
  Iterations, force evaluations = 1 2

MPI task timing breakdown:
Section |  min time  |  avg time  |  max time  |%varavg| %total
---------------------------------------------------------------
Pair    | 0.0011478  | 0.0011478  | 0.0011478  |   0.0 | 77.32
Neigh   | 0          | 0          | 0          |   0.0 |  0.00
Comm    | 8.296e-06  | 8.296e-06  | 8.296e-06  |   0.0 |  0.56
Output  | 0          | 0          | 0          |   0.0 |  0.00
Modify  | 0          | 0          | 0          |   0.0 |  0.00
Other   |            | 0.0003284  |            |       | 22.12

Nlocal:             62 ave          62 max          62 min
Histogram: 1 0 0 0 0 0 0 0 0 0
Nghost:            521 ave         521 max         521 min
Histogram: 1 0 0 0 0 0 0 0 0 0
Neighs:              0 ave           0 max           0 min
Histogram: 1 0 0 0 0 0 0 0 0 0
FullNghs:         9918 ave        9918 max        9918 min
Histogram: 1 0 0 0 0 0 0 0 0 0

Total # of neighbors = 9918
Ave neighs/atom = 159.96774
Neighbor list builds = 0
Dangerous builds = 0

# Minimize the with fire
  unfix           frb
  min_style       fire
  minimize        0.0 1.0e-3 10000 10000
  Parameters for fire:
    dmax  delaystep dtgrow dtshrink alpha0 alphashrink tmax tmin   integrator   halfstepback   abcfire  
     0.1     20      1.1     0.5     0.25     0.99      10  0.02 eulerimplicit      yes          no     
Per MPI rank memory allocation (min/avg/max) = 4.037 | 4.037 | 4.037 Mbytes
   Step          Temp          PotEng           Lx             Ly             Lz            Pxx            Pyy            Pzz            Fmax          Fnorm     
      6727                     0   -449.3173528517063    9.777952629001804    8.488768003199477    53.45410299391911  0.08189523797302195  0.07956044429504365 0.005355257409968798 0.0001998205146577657 0.0004836264225099241
      6728  1.191455228641253e-08    -449.317352851894    9.777952629001804    8.488768003199477    53.45410299391911   0.0817172248553205  0.07854312213567544 0.005642228209982533 0.0001997398497531287 0.000483327033861985
Loop time of 0.00103493 on 1 procs for 1 steps with 62 atoms

86.1% CPU use with 1 MPI tasks x no OpenMP threads

Minimization stats:
  Stopping criterion = force tolerance
  Energy initial, next-to-last, final = 
     -449.317352851706  -449.317352851706  -449.317352851894
  Force two-norm initial, final = 0.00048362642 0.00048332703
  Force max component initial, final = 0.00019982051 0.00019973985
  Final line search alpha, max atom move = 0 0
  Iterations, force evaluations = 1 2

MPI task timing breakdown:
Section |  min time  |  avg time  |  max time  |%varavg| %total
---------------------------------------------------------------
Pair    | 0.00077983 | 0.00077983 | 0.00077983 |   0.0 | 75.35
Neigh   | 0          | 0          | 0          |   0.0 |  0.00
Comm    | 5.896e-06  | 5.896e-06  | 5.896e-06  |   0.0 |  0.57
Output  | 0          | 0          | 0          |   0.0 |  0.00
Modify  | 0          | 0          | 0          |   0.0 |  0.00
Other   |            | 0.0002492  |            |       | 24.08

Nlocal:             62 ave          62 max          62 min
Histogram: 1 0 0 0 0 0 0 0 0 0
Nghost:            521 ave         521 max         521 min
Histogram: 1 0 0 0 0 0 0 0 0 0
Neighs:              0 ave           0 max           0 min
Histogram: 1 0 0 0 0 0 0 0 0 0
FullNghs:         9918 ave        9918 max        9918 min
Histogram: 1 0 0 0 0 0 0 0 0 0

Total # of neighbors = 9918
Ave neighs/atom = 159.96774
Neighbor list builds = 0
Dangerous builds = 0

next nr
jump ${simname}.in loopmin
jump LCBOP.in loopmin

# Minimize the with cg + box/relax
  fix             frb all box/relax tri 0.0 couple none
  min_style       cg
  min_modify      line quadratic
  minimize        0.0 1.0e-3 10000 10000
WARNING: Energy due to 6 extra global DOFs will be included in minimizer energies
 (src/min.cpp:225)
Per MPI rank memory allocation (min/avg/max) = 5.162 | 5.162 | 5.162 Mbytes
   Step          Temp          PotEng           Lx             Ly             Lz            Pxx            Pyy            Pzz            Fmax          Fnorm     
      6728  1.191455228641253e-08    -449.317352851894    9.777952629001804    8.488768003199477    53.45410299391911  0.08171722470680651   0.0785431220966174 0.005642228267062102 0.0001997398497390194 0.0004833270338551024
      6729  1.191455228641253e-08   -449.3173528520683    9.777954663938973    8.488769701217496    53.45410376201641  -0.2019905376042095  -0.1953451490303187 -0.008531184721877383 0.0001963047556636964 0.000481349269093931
Loop time of 0.00112796 on 1 procs for 1 steps with 62 atoms

82.8% CPU use with 1 MPI tasks x no OpenMP threads

Minimization stats:
  Stopping criterion = force tolerance
  Energy initial, next-to-last, final = 
     -449.317352851894  -449.317352851894  -449.317352852068
  Force two-norm initial, final = 0.00061948832 0.00097276188
  Force max component initial, final = 0.000226296 0.00055936386
  Final line search alpha, max atom move = 0.4418991 0.00024718239
  Iterations, force evaluations = 1 2

MPI task timing breakdown:
Section |  min time  |  avg time  |  max time  |%varavg| %total
---------------------------------------------------------------
Pair    | 0.00081596 | 0.00081596 | 0.00081596 |   0.0 | 72.34
Neigh   | 0          | 0          | 0          |   0.0 |  0.00
Comm    | 5.63e-06   | 5.63e-06   | 5.63e-06   |   0.0 |  0.50
Output  | 0          | 0          | 0          |   0.0 |  0.00
Modify  | 0          | 0          | 0          |   0.0 |  0.00
Other   |            | 0.0003064  |            |       | 27.16

Nlocal:             62 ave          62 max          62 min
Histogram: 1 0 0 0 0 0 0 0 0 0
Nghost:            521 ave         521 max         521 min
Histogram: 1 0 0 0 0 0 0 0 0 0
Neighs:              0 ave           0 max           0 min
Histogram: 1 0 0 0 0 0 0 0 0 0
FullNghs:         9918 ave        9918 max        9918 min
Histogram: 1 0 0 0 0 0 0 0 0 0

Total # of neighbors = 9918
Ave neighs/atom = 159.96774
Neighbor list builds = 0
Dangerous builds = 0

# Minimize the with fire
  unfix           frb
  min_style       fire
  minimize        0.0 1.0e-3 10000 10000
  Parameters for fire:
    dmax  delaystep dtgrow dtshrink alpha0 alphashrink tmax tmin   integrator   halfstepback   abcfire  
     0.1     20      1.1     0.5     0.25     0.99      10  0.02 eulerimplicit      yes          no     
Per MPI rank memory allocation (min/avg/max) = 4.037 | 4.037 | 4.037 Mbytes
   Step          Temp          PotEng           Lx             Ly             Lz            Pxx            Pyy            Pzz            Fmax          Fnorm     
      6729                     0   -449.3173528520684    9.777954663938973    8.488769701217496    53.45410376201641  -0.2019905398363669  -0.1953451506131087 -0.008531248917063281 0.0001963047556748152 0.0004813492690957026
      6730  1.180261717106891e-08   -449.3173528522543    9.777954663938973    8.488769701217496    53.45410376201641  -0.2016486399747368  -0.1960145513676456 -0.008398078041283888 0.0001962767084668574 0.0004810249675964281
Loop time of 0.00102284 on 1 procs for 1 steps with 62 atoms

81.1% CPU use with 1 MPI tasks x no OpenMP threads

Minimization stats:
  Stopping criterion = force tolerance
  Energy initial, next-to-last, final = 
     -449.317352852068  -449.317352852068  -449.317352852254
  Force two-norm initial, final = 0.00048134927 0.00048102497
  Force max component initial, final = 0.00019630476 0.00019627671
  Final line search alpha, max atom move = 0 0
  Iterations, force evaluations = 1 2

MPI task timing breakdown:
Section |  min time  |  avg time  |  max time  |%varavg| %total
---------------------------------------------------------------
Pair    | 0.00073453 | 0.00073453 | 0.00073453 |   0.0 | 71.81
Neigh   | 0          | 0          | 0          |   0.0 |  0.00
Comm    | 6.897e-06  | 6.897e-06  | 6.897e-06  |   0.0 |  0.67
Output  | 0          | 0          | 0          |   0.0 |  0.00
Modify  | 0          | 0          | 0          |   0.0 |  0.00
Other   |            | 0.0002814  |            |       | 27.51

Nlocal:             62 ave          62 max          62 min
Histogram: 1 0 0 0 0 0 0 0 0 0
Nghost:            521 ave         521 max         521 min
Histogram: 1 0 0 0 0 0 0 0 0 0
Neighs:              0 ave           0 max           0 min
Histogram: 1 0 0 0 0 0 0 0 0 0
FullNghs:         9918 ave        9918 max        9918 min
Histogram: 1 0 0 0 0 0 0 0 0 0

Total # of neighbors = 9918
Ave neighs/atom = 159.96774
Neighbor list builds = 0
Dangerous builds = 0

next nr
jump ${simname}.in loopmin
jump LCBOP.in loopmin

# Minimize the with cg + box/relax
  fix             frb all box/relax tri 0.0 couple none
  min_style       cg
  min_modify      line quadratic
  minimize        0.0 1.0e-3 10000 10000
Per MPI rank memory allocation (min/avg/max) = 5.162 | 5.162 | 5.162 Mbytes
   Step          Temp          PotEng           Lx             Ly             Lz            Pxx            Pyy            Pzz            Fmax          Fnorm     
WARNING: Too many warnings: 101 vs 100. All future warnings will be suppressed (src/thermo.cpp:472)
      6730  1.180261717106891e-08   -449.3173528522544    9.777954663938973    8.488769701217496    53.45410376201641  -0.2016486399513296  -0.1960145515272908 -0.008398077966537998 0.0001962767084633248 0.0004810249675974075
      6731  1.180261717106891e-08   -449.3173528524341     9.77795262893161    8.488767983879692    53.45410329869016  0.08066136154204612  0.07836242456446674 0.005277033484883971 0.0001996223310388048 0.0004830579778344975
Loop time of 0.00135671 on 1 procs for 1 steps with 62 atoms

85.5% CPU use with 1 MPI tasks x no OpenMP threads

Minimization stats:
  Stopping criterion = force tolerance
  Energy initial, next-to-last, final = 
     -449.317352852254  -449.317352852254  -449.317352852434
  Force two-norm initial, final = 0.00097294579 0.00061847967
  Force max component initial, final = 0.00055841718 0.00022337209
  Final line search alpha, max atom move = 0.17907759 4.0000935e-05
  Iterations, force evaluations = 1 2

MPI task timing breakdown:
Section |  min time  |  avg time  |  max time  |%varavg| %total
---------------------------------------------------------------
Pair    | 0.0010299  | 0.0010299  | 0.0010299  |   0.0 | 75.91
Neigh   | 0          | 0          | 0          |   0.0 |  0.00
Comm    | 7.527e-06  | 7.527e-06  | 7.527e-06  |   0.0 |  0.55
Output  | 0          | 0          | 0          |   0.0 |  0.00
Modify  | 0          | 0          | 0          |   0.0 |  0.00
Other   |            | 0.0003193  |            |       | 23.53

Nlocal:             62 ave          62 max          62 min
Histogram: 1 0 0 0 0 0 0 0 0 0
Nghost:            521 ave         521 max         521 min
Histogram: 1 0 0 0 0 0 0 0 0 0
Neighs:              0 ave           0 max           0 min
Histogram: 1 0 0 0 0 0 0 0 0 0
FullNghs:         9918 ave        9918 max        9918 min
Histogram: 1 0 0 0 0 0 0 0 0 0

Total # of neighbors = 9918
Ave neighs/atom = 159.96774
Neighbor list builds = 0
Dangerous builds = 0

# Minimize the with fire
  unfix           frb
  min_style       fire
  minimize        0.0 1.0e-3 10000 10000
  Parameters for fire:
    dmax  delaystep dtgrow dtshrink alpha0 alphashrink tmax tmin   integrator   halfstepback   abcfire  
     0.1     20      1.1     0.5     0.25     0.99      10  0.02 eulerimplicit      yes          no     
Per MPI rank memory allocation (min/avg/max) = 4.037 | 4.037 | 4.037 Mbytes
   Step          Temp          PotEng           Lx             Ly             Lz            Pxx            Pyy            Pzz            Fmax          Fnorm     
      6731                     0   -449.3173528524343     9.77795262893161    8.488767983879692    53.45410329869016  0.08066135901912184  0.07836242352092801 0.005276969975438723 0.0001996223310390342 0.0004830579778427417
      6732  1.188656050119889e-08   -449.3173528526204     9.77795262893161    8.488767983879692    53.45410329869016  0.08048238779850318  0.07734687782090438 0.005563676262162768 0.0001995417201743836 0.0004827593053403435
Loop time of 0.00123935 on 1 procs for 1 steps with 62 atoms

86.1% CPU use with 1 MPI tasks x no OpenMP threads

Minimization stats:
  Stopping criterion = force tolerance
  Energy initial, next-to-last, final = 
     -449.317352852434  -449.317352852434   -449.31735285262
  Force two-norm initial, final = 0.00048305798 0.00048275931
  Force max component initial, final = 0.00019962233 0.00019954172
  Final line search alpha, max atom move = 0 0
  Iterations, force evaluations = 1 2

MPI task timing breakdown:
Section |  min time  |  avg time  |  max time  |%varavg| %total
---------------------------------------------------------------
Pair    | 0.00092733 | 0.00092733 | 0.00092733 |   0.0 | 74.82
Neigh   | 0          | 0          | 0          |   0.0 |  0.00
Comm    | 9.931e-06  | 9.931e-06  | 9.931e-06  |   0.0 |  0.80
Output  | 0          | 0          | 0          |   0.0 |  0.00
Modify  | 0          | 0          | 0          |   0.0 |  0.00
Other   |            | 0.0003021  |            |       | 24.37

Nlocal:             62 ave          62 max          62 min
Histogram: 1 0 0 0 0 0 0 0 0 0
Nghost:            521 ave         521 max         521 min
Histogram: 1 0 0 0 0 0 0 0 0 0
Neighs:              0 ave           0 max           0 min
Histogram: 1 0 0 0 0 0 0 0 0 0
FullNghs:         9918 ave        9918 max        9918 min
Histogram: 1 0 0 0 0 0 0 0 0 0

Total # of neighbors = 9918
Ave neighs/atom = 159.96774
Neighbor list builds = 0
Dangerous builds = 0

next nr
jump ${simname}.in loopmin
jump LCBOP.in loopmin

variable        energy equal pe
fix             output all ave/time 1 1 1 v_energy file ${simname}_energy.data
fix             output all ave/time 1 1 1 v_energy file LCBOP_energy.data
dump            dump1 all custom 1 ${simname}.lammpstrj id type x y z fx fy fz
dump            dump1 all custom 1 LCBOP.lammpstrj id type x y z fx fy fz
dump_modify     dump1 sort id

fix             nve all nve
run             0
Per MPI rank memory allocation (min/avg/max) = 4.037 | 4.037 | 4.037 Mbytes
   Step          Temp          PotEng           Lx             Ly             Lz            Pxx            Pyy            Pzz            Fmax          Fnorm     
      6732  1.188656050119889e-08   -449.3173528526202     9.77795262893161    8.488767983879692    53.45410329869016  0.08048238786056468  0.07734687791640217 0.005563676289462237  0.00019954172017208 0.0004827593053450472
Loop time of 2.138e-06 on 1 procs for 0 steps with 62 atoms

327.4% CPU use with 1 MPI tasks x no OpenMP threads

MPI task timing breakdown:
Section |  min time  |  avg time  |  max time  |%varavg| %total
---------------------------------------------------------------
Pair    | 0          | 0          | 0          |   0.0 |  0.00
Neigh   | 0          | 0          | 0          |   0.0 |  0.00
Comm    | 0          | 0          | 0          |   0.0 |  0.00
Output  | 0          | 0          | 0          |   0.0 |  0.00
Modify  | 0          | 0          | 0          |   0.0 |  0.00
Other   |            | 2.138e-06  |            |       |100.00

Nlocal:             62 ave          62 max          62 min
Histogram: 1 0 0 0 0 0 0 0 0 0
Nghost:            521 ave         521 max         521 min
Histogram: 1 0 0 0 0 0 0 0 0 0
Neighs:              0 ave           0 max           0 min
Histogram: 1 0 0 0 0 0 0 0 0 0
FullNghs:         9918 ave        9918 max        9918 min
Histogram: 1 0 0 0 0 0 0 0 0 0

Total # of neighbors = 9918
Ave neighs/atom = 159.96774
Neighbor list builds = 0
Dangerous builds = 0
Total wall time: 0:00:04
