ITEM: TIMESTEP
20521
ITEM: NUMBER OF ATOMS
62
ITEM: BOX BOUNDS xy xz yz pp pp pp
-1.9090442525327145e+00 1.4856255705554965e+01 4.9692049884341740e+00
-1.0549040693472114e+00 8.5894590194375020e+00 -1.8000567892119419e+00
8.3934608238885333e-01 4.8891416591712328e+01 -9.7096779210966788e-01
ITEM: ATOMS id type x y z fx fy fz
1 1 14.0664 8.16192 19.3934 -0.000550196 -5.03063e-05 0.000157618
2 1 0.348101 0.211208 19.4186 0.000231813 2.06058e-05 -0.000310019
3 1 0.40653 0.24509 22.6327 -0.00013785 0.000184406 -0.000445519
4 1 1.65814 0.970484 22.6587 0.000204939 -0.000200665 5.61946e-05
5 1 10.3468 1.65855 19.4405 -0.000388541 0.000115413 -0.00034549
6 1 1.61168 2.36814 19.4651 0.000305607 0.000167937 0.000261956
7 1 1.59949 2.41067 22.6522 1.32434e-05 0.000144507 0.000376159
8 1 2.87146 3.18345 22.6222 -0.000148592 0.000189753 0.000904054
9 1 11.6111 3.81474 19.443 -4.10069e-05 0.000270884 -0.000164576
10 1 2.86731 4.54278 19.5393 0.00065088 -0.000393916 0.000321131
11 1 2.91256 4.64821 22.5362 -6.75532e-05 -0.000217941 0.000374647
12 1 4.16033 5.32649 22.3806 0.000924088 -0.000292429 -0.000139103
13 1 12.8214 5.98515 19.4597 -0.000219695 -3.88522e-05 0.000346678
14 1 4.06856 6.71842 19.455 0.000260908 -0.000309054 0.000385822
15 1 4.1432 6.76169 22.5874 -0.00019761 9.40237e-06 -0.000427313
16 1 5.39747 7.47589 22.5827 0.000296768 -0.000132532 -0.00037674
17 1 6.57446 8.16741 19.4405 -0.000622273 -6.42577e-06 -0.00020213
18 1 2.84778 0.235351 19.4651 0.000390325 -0.000177077 0.000421393
19 1 2.87861 0.203658 22.6522 0.000237044 0.000306884 0.000206393
20 1 4.18145 0.923166 22.6222 0.000521708 -0.000578622 0.000759663
21 1 2.8711 1.67346 19.537 -0.000535861 -3.31592e-06 0.000452572
22 1 4.11329 2.3934 19.741 0.000363174 -0.000257666 0.000398918
23 1 3.87261 2.25392 22.6216 0.000963061 0.000522928 0.00124739
24 1 4.08767 3.82962 19.8249 7.14579e-05 -0.000154542 0.000133751
25 1 5.15723 4.68622 20.3117 0.000212022 -0.000189822 0.000760275
26 1 5.36531 4.80682 21.7307 -0.000144255 -8.29938e-05 -0.000433207
27 1 6.64026 5.30904 22.2175 0.000241994 -0.000309697 8.07718e-05
28 1 5.30535 5.99009 19.6618 -0.000581239 -0.000811344 0.000123326
29 1 6.51417 6.73557 19.5062 0.000183609 -0.000265206 -0.000245671
30 1 6.62812 6.72244 22.5031 -0.000195211 -0.000294427 -0.000153652
31 1 7.88233 7.44706 22.5995 0.000279292 -0.000317934 -3.05766e-06
32 1 9.07388 8.19257 19.443 -0.000279294 0.000317923 3.06504e-06
33 1 5.35888 0.243791 19.5393 0.000195215 0.000294435 0.000153663
34 1 5.47283 0.230668 22.5362 -0.000183571 0.000265208 0.000245668
35 1 6.68165 0.976145 22.3806 0.000581258 0.000811384 -0.000123324
36 1 5.34674 1.65719 19.8249 -0.000242013 0.000309666 -8.07802e-05
37 1 6.62169 2.15941 20.3117 0.000144268 8.29528e-05 0.00043318
38 1 6.82977 2.28002 21.7307 -0.00021206 0.000189863 -0.000760318
39 1 7.89933 3.13662 22.2175 -7.14788e-05 0.000154522 -0.000133758
40 1 8.11439 4.71231 19.4208 -0.000962961 -0.000522869 -0.00124739
41 1 7.8737 4.57283 22.3014 -0.000363193 0.000257674 -0.000398919
42 1 9.1159 5.29277 22.5054 0.000535837 3.2998e-06 -0.00045257
43 1 7.80554 6.04307 19.4202 -0.000521706 0.000578543 -0.000759642
44 1 9.10839 6.76258 19.3902 -0.000237044 -0.000306876 -0.000206379
45 1 9.13922 6.73088 22.5773 -0.000390333 0.000177067 -0.000421388
46 1 10.3817 7.47222 22.602 0.000622266 6.42625e-06 0.000202135
47 1 11.5587 8.16373 19.4597 -0.000296763 0.000132525 0.000376737
48 1 7.8438 0.204543 19.455 0.00019762 -9.41991e-06 0.000427311
49 1 7.91844 0.247817 22.5874 -0.000260915 0.000309049 -0.000385824
50 1 9.16166 0.981084 22.5827 0.000219686 3.88616e-05 -0.000346681
51 1 7.82667 1.63975 19.6618 -0.00092404 0.000292425 0.000139094
52 1 9.07443 2.31803 19.5062 6.75599e-05 0.000217986 -0.00037465
53 1 9.11968 2.42345 22.5031 -0.000650892 0.000393913 -0.000321129
54 1 10.3719 3.15149 22.5995 4.10012e-05 -0.000270868 0.000164586
55 1 9.11553 3.78279 19.4202 0.000148521 -0.000189726 -0.000904035
56 1 10.3875 4.55557 19.3902 -1.32272e-05 -0.000144512 -0.000376152
57 1 10.3753 4.5981 22.5773 -0.000305615 -0.00016794 -0.000261958
58 1 11.6362 5.30768 22.602 0.000388554 -0.00011543 0.000345494
59 1 10.3289 5.99575 19.3837 -0.000204951 0.000200658 -5.61813e-05
60 1 11.5805 6.72114 19.4097 0.000137846 -0.000184411 0.000445517
61 1 11.6389 6.75503 22.6238 -0.000231815 -2.05894e-05 0.000310011
62 1 12.8858 7.47771 22.649 0.000550187 5.03077e-05 -0.00015762
