units           real
atom_style      charge
boundary        p p p
processors		  * * 1
read_data		    AB2_charge.data
Reading data file ...
  triclinic box = (0 0 0) to (9.7780633 8.5055227 49.730763) with tilt (4.8257792 0.29560231 0.17731162)
WARNING: Triclinic box skew is large. LAMMPS will run inefficiently. (src/domain.cpp:220)
  1 by 1 by 1 MPI processor grid
  reading atoms ...
  62 atoms
  read_data CPU = 0.003 seconds
mass            1 12.011

# Define potentials
pair_style      reax/c NULL
pair_coeff      * * ffield.reax.cho C
Reading potential file ffield.reax.cho with DATE: 2011-02-18
neigh_modify    every 1 delay 0 check yes
fix             1 all qeq/reax 1 0.0 10.0 1.0e-6 reax/c


# Variable
variable        thermofrq equal 100
variable        Nloop equal 100     # number of loop to run
variable        binding equal pe


# Output
thermo          ${thermofrq}
thermo          100
thermo_style    custom step temp pe press lx ly xy
thermo_modify   line one format float %20.16g
thermo_modify   flush yes norm no lost warn

# Minimize the system in loops
timestep        1.0e-3
variable        nr loop ${Nloop}
variable        nr loop 100
label           loopmin

# Minimize the with cg + box/relax
  fix             frb all box/relax tri 0.0 couple none
  min_style       cg
  min_modify      line quadratic
  minimize        0.0 2.306e-2 10000 10000

CITE-CITE-CITE-CITE-CITE-CITE-CITE-CITE-CITE-CITE-CITE-CITE-CITE

Your simulation uses code contributions which should be cited:

- pair reaxff command: doi:10.1016/j.parco.2011.08.005

@Article{Aktulga12,
 author = {H. M. Aktulga and J. C. Fogarty and S. A. Pandit and A. Y. Grama},
 title = {Parallel Reactive Molecular Dynamics: {N}umerical Methods and Algorithmic Techniques},
 journal = {Parallel Computing},
 year =    2012,
 volume =  38,
 number =  {4--5},
 pages =   {245--259}
}

- fix qeq/reaxff command: doi:10.1016/j.parco.2011.08.005

@Article{Aktulga12,
 author = {H. M. Aktulga and J. C. Fogarty and S. A. Pandit and A. Y. Grama},
 title = {Parallel Reactive Molecular Dynamics: {N}umerical Methods and Algorithmic Techniques},
 journal = {Parallel Computing},
 year =    2012,
 volume =  38,
 pages =   {245--259}
}

CITE-CITE-CITE-CITE-CITE-CITE-CITE-CITE-CITE-CITE-CITE-CITE-CITE

Neighbor list info ...
  update: every = 1 steps, delay = 0 steps, check = yes
  max neighbors/atom: 2000, page size: 100000
  master list distance cutoff = 12
  ghost atom cutoff = 12
  binsize = 6, bins = 3 2 9
  2 neighbor lists, perpetual/occasional/extra = 2 0 0
  (1) pair reax/c, perpetual
      attributes: half, newton off, ghost
      pair build: half/bin/newtoff/ghost
      stencil: full/ghost/bin/3d
      bin: standard
  (2) fix qeq/reax, perpetual, copy from (1)
      attributes: half, newton off
      pair build: copy
      stencil: none
      bin: none
WARNING: Energy due to 6 extra global DOFs will be included in minimizer energies
 (src/min.cpp:225)
Per MPI rank memory allocation (min/avg/max) = 20.58 | 20.58 | 20.58 Mbytes
   Step          Temp          PotEng         Press            Lx             Ly             Xy      
         0                     0   -11452.84506173071     183015.261383224    9.778063253799999         8.5055227422          4.825779155
       100                     0   -11768.73812875067    157283.0220841363    9.875843440236277    8.590459308481236     4.82673273549595
       200                     0   -11909.90242416235     -4780.0529641358    9.955860779682361    8.659907641399581     4.84125715266498
       300                     0   -11924.87988428945   -3591.080495567988    9.955246523044774    8.657914009102784      4.8772400636127
       400                     0   -11937.33844516557   -2202.273846795859    9.956553097598343    8.654097271694823    4.907169376471105
       500                     0   -11949.47938360661   -745.0682910172231    9.957461915702304    8.647711894607502    4.932531018631896
       600                     0   -11961.71953243509   -3629.372661020148    9.954155438381154     8.64151810452787    4.940463616831556
       700                     0   -11967.73075112302   -1769.999496859625    9.950047785079397    8.637781885789439     4.93950544241581
       800                     0   -11971.86073784182   -2739.684233535235     9.94819705083653    8.637152354593876    4.936574786654964
       900                     0    -11974.4629250233    -2485.51355715266    9.947635386784771    8.637823687160594    4.934492641591649
      1000                     0   -11976.74947762329    3562.202282780964    9.947279618511676    8.638108567131704    4.933681402206388
      1100                     0   -11978.69398046954    812.0563532673431    9.948883480879697    8.639826960859638     4.93359123418795
      1200                     0   -11980.52875054435    1433.990774404059    9.950456395843236    8.641366430860202    4.933998864040448
      1300                     0   -11982.16678006204    283.4731384326262    9.952512602754416    8.643232058377425    4.934682131289516
      1400                     0   -11983.74515105782   -1639.202813857776    9.954935094131063    8.645371735736521    4.935566621197661
      1500                     0    -11985.2775056813    95.06606324201593    9.956977833366592    8.647145316781502    4.936612465193511
      1600                     0   -11986.62770776659     1055.04436420161    9.959081673821212    8.648934746686839    4.937701857241535
      1700                     0   -11987.87617739298   -506.2052227636406    9.961568891527639    8.651022567852271    4.938854488360011
      1800                     0   -11989.04132104079   -3400.324461450817    9.964305009410978    8.653293877255484    4.940085363284928
      1900                     0   -11990.16678131957     -254.18030331926    9.966127013659097    8.654739883169094    4.941384228084797
      2000                     0   -11991.19239212259   -122.4835713584474    9.968472335554367    8.656498951499245    4.942953413710083
      2100                     0   -11992.00465230578   -555.8041262137779    9.970552239853005    8.658058238275654    4.944315844484844
      2200                     0   -11992.83892692501   -399.6238529616301    9.972733432419233    8.659673712948916    4.945819957802235
      2300                     0   -11993.57839479225   -161.7477121215205    9.974815647196872    8.661179279997565    4.947325138776953
      2400                     0   -11994.16376961256    473.3710299750363    9.976542318364324    8.662381746065931    4.948683915931671
      2500                     0    -11994.6864058846    973.5044269073753    9.978237321013614     8.66352799257743    4.950068451447342
      2600                     0   -11995.18913215612    -97.2130518372483    9.980255125628732    8.664894915315879    4.951596502705292
      2700                     0   -11995.59741162027    735.3542422196023    9.981799394409645    8.665850108691496    4.953041302039704
      2800                     0   -11995.97889799925    1611.934838201117    9.983110493581208    8.667056309643188    4.954909259502332
      2900                     0   -11996.33747242251   -73.83538556775663      9.9854666689866    8.668072807598062    4.956351222129678
      3000                     0   -11996.60877243258   -42.09229417038755    9.987021302639137     8.66893452305491    4.957921323494336
      3100                     0   -11996.83269875884     1048.08896389537    9.988156358448535     8.66970307857836    4.959612094655792
      3200                     0   -11997.01595032895    817.3832272886988    9.989753767139547    8.670197627741027     4.96085274339256
      3300                     0   -11997.16397221454   -872.7502606032616    9.991824065577099    8.670475866158712    4.961653426443527
      3400                     0   -11997.28913415039    119.3933372411284    9.992512375754206    8.671082240937036    4.963188511344663
      3500                     0   -11997.38278027319    -483.630072198132     9.99299176115046    8.671999368199508    4.964742002607561
      3600                     0   -11997.45463656973   -70.57667021766325    9.993601761229169    8.672309835447422    4.965820238188112
      3700                     0   -11997.52569540689    -47.2733056867924    9.994442772998543     8.67253793065111     4.96688167697411
      3800                     0   -11997.57168382506     338.900536448336    9.995472247742956    8.672201738140238    4.967798664063742
      3900                     0   -11997.61170299888   -31.67647534550693    9.995493395946523    8.672804163463923    4.967776050828121
      4000                     0   -11997.65103061347     21.0142149526156    9.995738456055328    8.673094459267707    4.968457878537403
      4100                     0   -11997.68421809321   -465.9567872974138    9.996682118840386    8.672847739189557        4.96864852341
      4200                     0   -11997.71702153209    88.40104122465443    9.996756446499921    8.673001734833454    4.968541663631076
      4300                     0   -11997.74661028663    32.51604440853765    9.996581941292581    8.673428991947496     4.96871248319306
      4400                     0   -11997.77280081354    24.48022935726368    9.996568398230764    8.673555712679189     4.96931463252477
      4500                     0   -11997.78121984105    190.6316533957533    9.997031757384459    8.673182101495364     4.97089452459837
      4600                     0   -11997.79248281964    11.81895585877316    9.996367219910015    8.673635703867069    4.969202711104296
      4700                     0    -11997.7966188173     11.4525211034814    9.996309181598489    8.673606221319291    4.969277474022752
      4800                     0   -11997.79907550901    11.03589866540613    9.996143921248752    8.673698571240855    4.969772765429161
      4900                     0   -11997.80079559497   -42.92068815937884    9.996381643709698    8.673469857541187    4.970055770395511
      4925                     0   -11997.80094164981   -33.86748142391001    9.996382417167984      8.6734418166563    4.969981263099994
Loop time of 43.7021 on 1 procs for 4925 steps with 62 atoms

99.9% CPU use with 1 MPI tasks x no OpenMP threads

Minimization stats:
  Stopping criterion = linesearch alpha is zero
  Energy initial, next-to-last, final = 
     -11452.8450617307  -11997.8009415993  -11997.8009416498
  Force two-norm initial, final = 23573.903 5.5274573
  Force max component initial, final = 16665.63 3.3920254
  Final line search alpha, max atom move = 2.4720279e-10 8.3851816e-10
  Iterations, force evaluations = 4925 7509

MPI task timing breakdown:
Section |  min time  |  avg time  |  max time  |%varavg| %total
---------------------------------------------------------------
Pair    | 39.122     | 39.122     | 39.122     |   0.0 | 89.52
Neigh   | 0.0065827  | 0.0065827  | 0.0065827  |   0.0 |  0.02
Comm    | 0.046512   | 0.046512   | 0.046512   |   0.0 |  0.11
Output  | 0.038742   | 0.038742   | 0.038742   |   0.0 |  0.09
Modify  | 4.3528     | 4.3528     | 4.3528     |   0.0 |  9.96
Other   |            | 0.1354     |            |       |  0.31

Nlocal:             62 ave          62 max          62 min
Histogram: 1 0 0 0 0 0 0 0 0 0
Nghost:            820 ave         820 max         820 min
Histogram: 1 0 0 0 0 0 0 0 0 0
Neighs:          17762 ave       17762 max       17762 min
Histogram: 1 0 0 0 0 0 0 0 0 0

Total # of neighbors = 17762
Ave neighs/atom = 286.48387
Neighbor list builds = 4
Dangerous builds = 0

# Minimize the with fire
  unfix           frb
  min_style       fire
  minimize        0.0 2.306e-2 10000 10000
  Parameters for fire:
    dmax  delaystep dtgrow dtshrink alpha0 alphashrink tmax tmin   integrator   halfstepback   abcfire  
     0.1     20      1.1     0.5     0.25     0.99      10  0.02 eulerimplicit      yes          no     
Per MPI rank memory allocation (min/avg/max) = 19.45 | 19.45 | 19.45 Mbytes
   Step          Temp          PotEng         Press            Lx             Ly             Xy      
      4925                     0   -11997.80094160571   -33.86748220141142    9.996382417167984      8.6734418166563    4.969981263099994
      5000  2.312200554600584e-05    -11997.8009467378   -33.11783627759692    9.996382417167984      8.6734418166563    4.969981263099994
      5100  0.0002066589626341902   -11997.80098395048   -24.87884010277317    9.996382417167984      8.6734418166563    4.969981263099994
      5200  0.0003338050756396799   -11997.80101493492   -13.18161562919815    9.996382417167984      8.6734418166563    4.969981263099994
      5300  0.000406509950621504   -11997.80103772806   -12.50396770005325    9.996382417167984      8.6734418166563    4.969981263099994
      5400  0.000487714814135939   -11997.80105895978    -17.5227154142153    9.996382417167984      8.6734418166563    4.969981263099994
      5500  0.0005816957889505175   -11997.80108088293   -20.75004395867115    9.996382417167984      8.6734418166563    4.969981263099994
      5600  0.0006999587552134952   -11997.80110499705   -20.69239143617392    9.996382417167984      8.6734418166563    4.969981263099994
      5700  0.0008432866837878753   -11997.80113232135   -17.71412943469375    9.996382417167984      8.6734418166563    4.969981263099994
      5800  0.001008310085171229   -11997.80116276978   -12.53171163948763    9.996382417167984      8.6734418166563    4.969981263099994
      5900  0.001190892864520416    -11997.8011961716   -5.978383058772478    9.996382417167984      8.6734418166563    4.969981263099994
      6000  0.001387478839759546   -11997.80123195877    1.170364741917968    9.996382417167984      8.6734418166563    4.969981263099994
      6100   0.00159519828034481   -11997.80126977711    8.371420049130894    9.996382417167984      8.6734418166563    4.969981263099994
      6200  0.001812398206921126   -11997.80130908558    15.36860494290029    9.996382417167984      8.6734418166563    4.969981263099994
      6300  0.002038934925804224    -11997.8013505417    22.06385320375161    9.996382417167984      8.6734418166563    4.969981263099994
      6400  0.002276283021749826   -11997.80139372041    28.25024292796543    9.996382417167984      8.6734418166563    4.969981263099994
      6500   0.00252708430160259   -11997.80143930744    33.35748860975733    9.996382417167984      8.6734418166563    4.969981263099994
      6600  0.002792792203987546   -11997.80148762947    36.39173870958256    9.996382417167984      8.6734418166563    4.969981263099994
      6700  0.003071887184964999     -11997.801538402    36.16569446636645    9.996382417167984      8.6734418166563    4.969981263099994
      6800  0.003360567727921367   -11997.80159092829    31.74800042448554    9.996382417167984      8.6734418166563    4.969981263099994
      6900  0.003654353892725198   -11997.80164423722    22.91867395586138    9.996382417167984      8.6734418166563    4.969981263099994
      7000  0.003949817054859864   -11997.80169805838    10.39843353754264    9.996382417167984      8.6734418166563    4.969981263099994
      7100  0.004245639244712365    -11997.8017518115   -4.261787626646853    9.996382417167984      8.6734418166563    4.969981263099994
      7200  0.004542816344291654   -11997.80180588268   -19.07369427816173    9.996382417167984      8.6734418166563    4.969981263099994
      7300  0.004844249155683223   -11997.80186070232    -32.1147040006997    9.996382417167984      8.6734418166563    4.969981263099994
      7400  0.005152286484667657    -11997.8019166976    -41.9573472785609    9.996382417167984      8.6734418166563    4.969981263099994
      7500  0.005466372487913014   -11997.80197378687   -47.90323279022432    9.996382417167984      8.6734418166563    4.969981263099994
      7600  0.005784187608048268   -11997.80203165068   -49.97802306865228    9.996382417167984      8.6734418166563    4.969981263099994
      7700  0.006103737868385423   -11997.80208967687   -48.71265180909585    9.996382417167984      8.6734418166563    4.969981263099994
      7800  0.006423875284907903   -11997.80214793052   -44.80352789024915    9.996382417167984      8.6734418166563    4.969981263099994
      7900  0.006743941750335168    -11997.8022060967   -38.80191985861425    9.996382417167984      8.6734418166563    4.969981263099994
      8000  0.007063247220853754   -11997.80226419252   -30.98526449406488    9.996382417167984      8.6734418166563    4.969981263099994
      8100  0.007381384610707533    -11997.8023220176   -21.47694568081779    9.996382417167984      8.6734418166563    4.969981263099994
      8200  0.007698237686077465   -11997.80237964007   -10.53571307265475    9.996382417167984      8.6734418166563    4.969981263099994
      8300  0.008012510340398108   -11997.80243675037    1.175072658432623    9.996382417167984      8.6734418166563    4.969981263099994
      8400  0.008321562677838941   -11997.80249299491    12.52181778355684    9.996382417167984      8.6734418166563    4.969981263099994
      8500  0.008623157006465387   -11997.80254771627    22.09990739084328    9.996382417167984      8.6734418166563    4.969981263099994
      8600  0.008916628036803775   -11997.80260112787    28.60728694982265    9.996382417167984      8.6734418166563    4.969981263099994
      8700  0.009202780925689009   -11997.80265315895    31.22012979920841    9.996382417167984      8.6734418166563    4.969981263099994
      8800  0.009482610875913944   -11997.80270401947    29.82091434058032    9.996382417167984      8.6734418166563    4.969981263099994
      8900  0.009756299428099951   -11997.80275380665    25.01152064824171    9.996382417167984      8.6734418166563    4.969981263099994
      9000   0.01002390548189348   -11997.80280239427    17.92444816339012    9.996382417167984      8.6734418166563    4.969981263099994
      9100   0.01028582880146801   -11997.80285006002    9.897985843228682    9.996382417167984      8.6734418166563    4.969981263099994
      9200   0.01054196006706659   -11997.80289663555    2.115048831551881    9.996382417167984      8.6734418166563    4.969981263099994
      9300   0.01079077241374489   -11997.80294186012   -4.672733580528628    9.996382417167984      8.6734418166563    4.969981263099994
      9400   0.01102957627597691   -11997.80298521478   -10.22784643348613    9.996382417167984      8.6734418166563    4.969981263099994
      9500   0.01125669800727188   -11997.80302656501   -14.68594725317653    9.996382417167984      8.6734418166563    4.969981263099994
      9600   0.01147301464515979   -11997.80306586992    -18.2791677673498    9.996382417167984      8.6734418166563    4.969981263099994
      9700   0.01167997526517995   -11997.80310355833   -21.09443748667649    9.996382417167984      8.6734418166563    4.969981263099994
      9800    0.0118770186370109   -11997.80313937645   -23.01458153478839    9.996382417167984      8.6734418166563    4.969981263099994
      9900    0.0120618920271053    -11997.8031729544   -23.86720251762759    9.996382417167984      8.6734418166563    4.969981263099994
     10000   0.01223272947617387   -11997.80320402991   -23.67213528971365    9.996382417167984      8.6734418166563    4.969981263099994
     10100   0.01238891491545683   -11997.80323239154   -22.82620520589848    9.996382417167984      8.6734418166563    4.969981263099994
     10200    0.0125300421866031    -11997.8032580372   -22.11569119798769    9.996382417167984      8.6734418166563    4.969981263099994
     10300    0.0126560083956451   -11997.80328093235   -22.54471106908772    9.996382417167984      8.6734418166563    4.969981263099994
     10400   0.01276894839929568   -11997.80330144905   -25.04033984069303    9.996382417167984      8.6734418166563    4.969981263099994
     10500    0.0128728202887495   -11997.80332027559   -30.12317675594432    9.996382417167984      8.6734418166563    4.969981263099994
     10600   0.01297010517819667   -11997.80333804086   -37.64169905403935    9.996382417167984      8.6734418166563    4.969981263099994
     10700   0.01305974499115924   -11997.80335428786   -46.67399560660793    9.996382417167984      8.6734418166563    4.969981263099994
     10800   0.01313825096782021   -11997.80336857834   -55.67678610400329    9.996382417167984      8.6734418166563    4.969981263099994
     10900   0.01320256352239272   -11997.80338023281   -62.88012481288155    9.996382417167984      8.6734418166563    4.969981263099994
     11000   0.01325149494273885   -11997.80338912912     -66.804378605594    9.996382417167984      8.6734418166563    4.969981263099994
     11100   0.01328494719872976   -11997.80339519489   -66.69081436820895    9.996382417167984      8.6734418166563    4.969981263099994
     11200   0.01330365642674176   -11997.80339858437   -62.66367287773304    9.996382417167984      8.6734418166563    4.969981263099994
     11300  1.038360507730033e-10   -11997.80339963644   -55.70657205201069    9.996382417167984      8.6734418166563    4.969981263099994
     11400  2.139484995830281e-06    -11997.8034001172   -55.10488164977296    9.996382417167984      8.6734418166563    4.969981263099994
     11500  1.003297423924801e-05   -11997.80340167009   -52.77532996707588    9.996382417167984      8.6734418166563    4.969981263099994
     11600  2.191207022420696e-05   -11997.80340389604   -48.67078712308434    9.996382417167984      8.6734418166563    4.969981263099994
     11700  3.520022650088236e-05   -11997.80340643315   -43.49558778729593    9.996382417167984      8.6734418166563    4.969981263099994
     11800  4.85101315678051e-05   -11997.80340905088   -38.31122570587295    9.996382417167984      8.6734418166563    4.969981263099994
     11900  6.23453297825702e-05   -11997.80341187217   -33.87115018823625    9.996382417167984      8.6734418166563    4.969981263099994
     12000  7.803851927722581e-05   -11997.80341495734   -30.53222468210394    9.996382417167984      8.6734418166563    4.969981263099994
     12100  9.653320911212627e-05   -11997.80341840494   -28.49983879729315    9.996382417167984      8.6734418166563    4.969981263099994
     12200  0.0001182709705100001   -11997.80342240432     -27.905543178837    9.996382417167984      8.6734418166563    4.969981263099994
     12300  0.0001432450661236375   -11997.80342697552   -28.76120676142003    9.996382417167984      8.6734418166563    4.969981263099994
     12400  0.0001710025093025132   -11997.80343202023   -30.92726074514851    9.996382417167984      8.6734418166563    4.969981263099994
     12500  0.0002007853698721238   -11997.80343742374   -34.12713628354022    9.996382417167984      8.6734418166563    4.969981263099994
     12600  0.0002318236384993759   -11997.80344303949   -37.99238654089101    9.996382417167984      8.6734418166563    4.969981263099994
     12700  0.0002636429629933509   -11997.80344888911   -42.11587519647976    9.996382417167984      8.6734418166563    4.969981263099994
     12800  0.000296229750178161    -11997.8034547835   -46.09682876832164    9.996382417167984      8.6734418166563    4.969981263099994
     12900  0.000329969194532937   -11997.80346092286   -49.57171194655716    9.996382417167984      8.6734418166563    4.969981263099994
     13000  0.000365388971178131   -11997.80346737653   -52.23383093310417    9.996382417167984      8.6734418166563    4.969981263099994
     13100  0.0004028430197923579    -11997.8034741697   -53.84892258294312    9.996382417167984      8.6734418166563    4.969981263099994
     13200  0.0004423015893432511    -11997.8034813682   -54.27314835278351    9.996382417167984      8.6734418166563    4.969981263099994
     13300  0.0004833504491730347   -11997.80348877171   -53.47501009390929    9.996382417167984      8.6734418166563    4.969981263099994
     13400  0.0005253812055271169   -11997.80349640166   -51.55613783015479    9.996382417167984      8.6734418166563    4.969981263099994
     13500  0.0005678563401843548   -11997.80350417478   -48.76089517566816    9.996382417167984      8.6734418166563    4.969981263099994
     13600  0.0006105097949255061   -11997.80351196259   -45.46386461341694    9.996382417167984      8.6734418166563    4.969981263099994
     13700  0.0006533909470145425   -11997.80351973678   -42.12918773627288    9.996382417167984      8.6734418166563    4.969981263099994
     13800  0.0006967421991143091   -11997.80352761907   -39.24527040506246    9.996382417167984      8.6734418166563    4.969981263099994
     13900  0.0007407855266394829   -11997.80353564318   -37.24859472929521    9.996382417167984      8.6734418166563    4.969981263099994
     14000  0.0007855443400435622   -11997.80354376756   -36.45617395394039    9.996382417167984      8.6734418166563    4.969981263099994
     14100  0.0008308017434195392    -11997.8035519481    -37.0241742808071    9.996382417167984      8.6734418166563    4.969981263099994
     14200  0.0008761997845843247   -11997.80356017736   -38.94087909217463    9.996382417167984      8.6734418166563    4.969981263099994
     14300  0.0009213943156404017   -11997.80356846131   -42.05007329491092    9.996382417167984      8.6734418166563    4.969981263099994
     14400  0.0009661666928998075   -11997.80357655552   -46.09171086435579    9.996382417167984      8.6734418166563    4.969981263099994
     14500   0.00101044552725996   -11997.80358462099   -50.74431700434091    9.996382417167984      8.6734418166563    4.969981263099994
     14600  0.001054251461534571    -11997.8035926208    -55.6581297177928    9.996382417167984      8.6734418166563    4.969981263099994
     14700  0.001097611198662531   -11997.80360053777   -60.47642777555449    9.996382417167984      8.6734418166563    4.969981263099994
     14800  0.001140495307054586   -11997.80360830693   -64.85070278501682    9.996382417167984      8.6734418166563    4.969981263099994
     14900  0.001182819190389252   -11997.80361598768   -68.45938607753808    9.996382417167984      8.6734418166563    4.969981263099994
     14925  0.001193302035460998   -11997.80361793587   -69.20910209111368    9.996382417167984      8.6734418166563    4.969981263099994
Loop time of 44.043 on 1 procs for 10000 steps with 62 atoms

99.3% CPU use with 1 MPI tasks x no OpenMP threads

Minimization stats:
  Stopping criterion = max iterations
  Energy initial, next-to-last, final = 
     -11997.8009416057  -11997.8036177923  -11997.8036179359
  Force two-norm initial, final = 1.4663124 0.093180727
  Force max component initial, final = 0.3495257 0.019848882
  Final line search alpha, max atom move = 0 0
  Iterations, force evaluations = 10000 10002

MPI task timing breakdown:
Section |  min time  |  avg time  |  max time  |%varavg| %total
---------------------------------------------------------------
Pair    | 39.273     | 39.273     | 39.273     |   0.0 | 89.17
Neigh   | 0          | 0          | 0          |   0.0 |  0.00
Comm    | 0.057482   | 0.057482   | 0.057482   |   0.0 |  0.13
Output  | 0.32457    | 0.32457    | 0.32457    |   0.0 |  0.74
Modify  | 4.3359     | 4.3359     | 4.3359     |   0.0 |  9.84
Other   |            | 0.05154    |            |       |  0.12

Nlocal:             62 ave          62 max          62 min
Histogram: 1 0 0 0 0 0 0 0 0 0
Nghost:            820 ave         820 max         820 min
Histogram: 1 0 0 0 0 0 0 0 0 0
Neighs:          17785 ave       17785 max       17785 min
Histogram: 1 0 0 0 0 0 0 0 0 0

Total # of neighbors = 17785
Ave neighs/atom = 286.85484
Neighbor list builds = 0
Dangerous builds = 0

next nr
jump ${simname}.in loopmin
jump ReaxFF.in loopmin

# Minimize the with cg + box/relax
  fix             frb all box/relax tri 0.0 couple none
  min_style       cg
  min_modify      line quadratic
  minimize        0.0 2.306e-2 10000 10000
WARNING: Energy due to 6 extra global DOFs will be included in minimizer energies
 (src/min.cpp:225)
Per MPI rank memory allocation (min/avg/max) = 20.58 | 20.58 | 20.58 Mbytes
   Step          Temp          PotEng         Press            Lx             Ly             Xy      
     14925  0.001193302035460998   -11997.80361792778   -69.20910207861399    9.996382417167984      8.6734418166563    4.969981263099994
     15000  0.001193302035460998   -11997.80390768691   -16.10977160181928    9.996181048946724    8.673381435193644    4.969234224001005
     15100  0.001193302035460998   -11997.80399347914   -17.47195668447638    9.996146623480623    8.673396623861576    4.969380987627482
     15200  0.001193302035460998   -11997.80406531463   -8.982263853775098    9.996055259303487    8.673448277091085    4.969227187110718
     15300  0.001193302035460998   -11997.80412666399   -1.581804828063257    9.996086883923429    8.673408616634608    4.969202320792118
     15328  0.001193302035460998   -11997.80413170681    1.909984448239521    9.996094900962165    8.673394988100242    4.969228979571466
Loop time of 2.92609 on 1 procs for 403 steps with 62 atoms

99.8% CPU use with 1 MPI tasks x no OpenMP threads

Minimization stats:
  Stopping criterion = linesearch alpha is zero
  Energy initial, next-to-last, final = 
     -11997.8036179278  -11997.8041317233  -11997.8041317068
  Force two-norm initial, final = 8.99902 0.25421954
  Force max component initial, final = 6.6125113 0.21489351
  Final line search alpha, max atom move = 8.1673986e-07 1.755121e-07
  Iterations, force evaluations = 403 886

MPI task timing breakdown:
Section |  min time  |  avg time  |  max time  |%varavg| %total
---------------------------------------------------------------
Pair    | 2.6049     | 2.6049     | 2.6049     |   0.0 | 89.02
Neigh   | 0          | 0          | 0          |   0.0 |  0.00
Comm    | 0.0033167  | 0.0033167  | 0.0033167  |   0.0 |  0.11
Output  | 0.004162   | 0.004162   | 0.004162   |   0.0 |  0.14
Modify  | 0.30294    | 0.30294    | 0.30294    |   0.0 | 10.35
Other   |            | 0.01081    |            |       |  0.37

Nlocal:             62 ave          62 max          62 min
Histogram: 1 0 0 0 0 0 0 0 0 0
Nghost:            820 ave         820 max         820 min
Histogram: 1 0 0 0 0 0 0 0 0 0
Neighs:          17785 ave       17785 max       17785 min
Histogram: 1 0 0 0 0 0 0 0 0 0

Total # of neighbors = 17785
Ave neighs/atom = 286.85484
Neighbor list builds = 0
Dangerous builds = 0

# Minimize the with fire
  unfix           frb
  min_style       fire
  minimize        0.0 2.306e-2 10000 10000
  Parameters for fire:
    dmax  delaystep dtgrow dtshrink alpha0 alphashrink tmax tmin   integrator   halfstepback   abcfire  
     0.1     20      1.1     0.5     0.25     0.99      10  0.02 eulerimplicit      yes          no     
Per MPI rank memory allocation (min/avg/max) = 19.45 | 19.45 | 19.45 Mbytes
   Step          Temp          PotEng         Press            Lx             Ly             Xy      
     15328                     0   -11997.80413170928    1.907603600061462    9.996094900962165    8.673394988100242    4.969228979571466
     15400  3.711895060265699e-08   -11997.80413174557    1.893747116014163    9.996094900962165    8.673394988100242    4.969228979571466
     15500  4.760315665461005e-07   -11997.80413172961     1.70790931629169    9.996094900962165    8.673394988100242    4.969228979571466
     15600  1.261556279015468e-06   -11997.80413195993     1.25296601017792    9.996094900962165    8.673394988100242    4.969228979571466
     15700  2.326861826232139e-06   -11997.80413208535   0.5655178299470627    9.996094900962165    8.673394988100242    4.969228979571466
     15800  3.675321342800619e-06   -11997.80413240633  -0.2236144467475704    9.996094900962165    8.673394988100242    4.969228979571466
     15900  5.309452997757356e-06   -11997.80413264472  -0.9917771136228403    9.996094900962165    8.673394988100242    4.969228979571466
     16000  7.229330521908747e-06   -11997.80413302252   -1.657052658451186    9.996094900962165    8.673394988100242    4.969228979571466
     16100  9.441439343686763e-06   -11997.80413345693    -2.16391560411893    9.996094900962165    8.673394988100242    4.969228979571466
     16200  1.195358005217829e-05   -11997.80413392396   -2.474413114616784    9.996094900962165    8.673394988100242    4.969228979571466
     16300  1.476915695383624e-05   -11997.80413446332    -2.56985650110279    9.996094900962165    8.673394988100242    4.969228979571466
     16400  1.78816113882231e-05   -11997.80413502148    -2.45330392189771    9.996094900962165    8.673394988100242    4.969228979571466
     16500  2.127094122439031e-05   -11997.80413560145   -2.148240445944793    9.996094900962165    8.673394988100242    4.969228979571466
     16600  2.490700122573309e-05   -11997.80413625983   -1.694265082586617    9.996094900962165    8.673394988100242    4.969228979571466
     16700  2.875927295709796e-05   -11997.80413696302   -1.142015226899492    9.996094900962165    8.673394988100242    4.969228979571466
     16800  3.280738753313724e-05   -11997.80413766481  -0.5487832506258903    9.996094900962165    8.673394988100242    4.969228979571466
     16900  3.704431306110703e-05   -11997.80413846795  0.02489568383432088    9.996094900962165    8.673394988100242    4.969228979571466
     17000  4.146983499643141e-05   -11997.80413925707   0.5183914342706024    9.996094900962165    8.673394988100242    4.969228979571466
     17100  4.608203348316647e-05   -11997.80414007088   0.8751676098543018    9.996094900962165    8.673394988100242    4.969228979571466
     17200  5.087394291172438e-05    -11997.8041410119    1.048953956846842    9.996094900962165    8.673394988100242    4.969228979571466
     17300  5.583340727367368e-05   -11997.80414191732    1.011586086686541    9.996094900962165    8.673394988100242    4.969228979571466
     17400  6.09416542374536e-05   -11997.80414285802   0.7603910898360664    9.996094900962165    8.673394988100242    4.969228979571466
     17500  6.617204124413658e-05   -11997.80414380467   0.3218982641499759    9.996094900962165    8.673394988100242    4.969228979571466
     17600  7.149411572860368e-05    -11997.8041447704  -0.2505443433201276    9.996094900962165    8.673394988100242    4.969228979571466
     17700  7.688276181493506e-05   -11997.80414573849  -0.8853920793938348    9.996094900962165    8.673394988100242    4.969228979571466
     17800  8.232463143218289e-05   -11997.80414670969   -1.505327172744085    9.996094900962165    8.673394988100242    4.969228979571466
     17900  8.781579328811945e-05   -11997.80414765023   -2.039797150279864    9.996094900962165    8.673394988100242    4.969228979571466
     18000  9.335341297053019e-05   -11997.80414872724   -2.434502639075022    9.996094900962165    8.673394988100242    4.969228979571466
     18100  9.892882029767416e-05   -11997.80414967099   -2.656389354478763    9.996094900962165    8.673394988100242    4.969228979571466
     18200  0.0001045256061486297    -11997.8041507462    -2.69434215729208    9.996094900962165    8.673394988100242    4.969228979571466
     18300  0.0001101213928122476   -11997.80415181519   -2.557002746560018    9.996094900962165    8.673394988100242    4.969228979571466
     18400  0.0001156917792610302   -11997.80415274221   -2.269344111130366    9.996094900962165    8.673394988100242    4.969228979571466
     18500  0.0001212150158390265    -11997.8041538019    -1.86946765781191    9.996094900962165    8.673394988100242    4.969228979571466
     18600  0.0001266740529026811   -11997.80415483128   -1.406197585727285    9.996094900962165    8.673394988100242    4.969228979571466
     18700  0.000132055781371454   -11997.80415570938   -0.936758075870272    9.996094900962165    8.673394988100242    4.969228979571466
     18800  0.0001373513702995375   -11997.80415674269  -0.5230357477861229    9.996094900962165    8.673394988100242    4.969228979571466
     18900  0.000142557326997621   -11997.80415769576  -0.2251887932148502    9.996094900962165    8.673394988100242    4.969228979571466
     19000  0.0001476726574776032   -11997.80415863289 -0.09288698182579126    9.996094900962165    8.673394988100242    4.969228979571466
     19100  0.0001526922702005564   -11997.80415953202  -0.1564851489981716    9.996094900962165    8.673394988100242    4.969228979571466
     19200  0.0001576029702752778     -11997.804160394  -0.4211503374928997    9.996094900962165    8.673394988100242    4.969228979571466
     19300  0.0001623869686912177   -11997.80416131385  -0.8659723732436861    9.996094900962165    8.673394988100242    4.969228979571466
     19400  0.000167029554774874    -11997.8041621328   -1.447996498543952    9.996094900962165    8.673394988100242    4.969228979571466
     19500  0.0001715226606311189   -11997.80416297254   -2.109365899405036    9.996094900962165    8.673394988100242    4.969228979571466
     19583  0.000175135498793409   -11997.80416358541   -2.672323098005807    9.996094900962165    8.673394988100242    4.969228979571466
Loop time of 14.738 on 1 procs for 4255 steps with 62 atoms

99.5% CPU use with 1 MPI tasks x no OpenMP threads

Minimization stats:
  Stopping criterion = force tolerance
  Energy initial, next-to-last, final = 
     -11997.8041317093  -11997.8041635703  -11997.8041635854
  Force two-norm initial, final = 0.062773312 0.023058813
  Force max component initial, final = 0.011061451 0.0047172992
  Final line search alpha, max atom move = 0 0
  Iterations, force evaluations = 4255 4256

MPI task timing breakdown:
Section |  min time  |  avg time  |  max time  |%varavg| %total
---------------------------------------------------------------
Pair    | 13.121     | 13.121     | 13.121     |   0.0 | 89.03
Neigh   | 0          | 0          | 0          |   0.0 |  0.00
Comm    | 0.021861   | 0.021861   | 0.021861   |   0.0 |  0.15
Output  | 0.080692   | 0.080692   | 0.080692   |   0.0 |  0.55
Modify  | 1.4959     | 1.4959     | 1.4959     |   0.0 | 10.15
Other   |            | 0.01866    |            |       |  0.13

Nlocal:             62 ave          62 max          62 min
Histogram: 1 0 0 0 0 0 0 0 0 0
Nghost:            820 ave         820 max         820 min
Histogram: 1 0 0 0 0 0 0 0 0 0
Neighs:          17785 ave       17785 max       17785 min
Histogram: 1 0 0 0 0 0 0 0 0 0

Total # of neighbors = 17785
Ave neighs/atom = 286.85484
Neighbor list builds = 0
Dangerous builds = 0

next nr
jump ${simname}.in loopmin
jump ReaxFF.in loopmin

# Minimize the with cg + box/relax
  fix             frb all box/relax tri 0.0 couple none
  min_style       cg
  min_modify      line quadratic
  minimize        0.0 2.306e-2 10000 10000
WARNING: Energy due to 6 extra global DOFs will be included in minimizer energies
 (src/min.cpp:225)
Per MPI rank memory allocation (min/avg/max) = 20.58 | 20.58 | 20.58 Mbytes
   Step          Temp          PotEng         Press            Lx             Ly             Xy      
     19583  0.000175135498793409   -11997.80416353118   -2.672324252013281    9.996094900962165    8.673394988100242    4.969228979571466
     19600  0.000175135498793409   -11997.80416759504   -1.147994798501918    9.996040616242606     8.67341617200216    4.969273668827348
     19700  0.000175135498793409   -11997.80418717304   -3.481789890949868    9.996049997923105    8.673393393442989    4.969212223496782
     19747  0.000175135498793409   -11997.80418834124   0.5448664677572753    9.996054831299274    8.673393358667473     4.96920487581048
Loop time of 2.06199 on 1 procs for 164 steps with 62 atoms

99.9% CPU use with 1 MPI tasks x no OpenMP threads

Minimization stats:
  Stopping criterion = linesearch alpha is zero
  Energy initial, next-to-last, final = 
     -11997.8041635312  -11997.8041883498  -11997.8041883412
  Force two-norm initial, final = 0.35700723 0.076446605
  Force max component initial, final = 0.2798013 0.06579898
  Final line search alpha, max atom move = 1.3496581e-06 8.8806126e-08
  Iterations, force evaluations = 164 612

MPI task timing breakdown:
Section |  min time  |  avg time  |  max time  |%varavg| %total
---------------------------------------------------------------
Pair    | 1.8376     | 1.8376     | 1.8376     |   0.0 | 89.12
Neigh   | 0          | 0          | 0          |   0.0 |  0.00
Comm    | 0.0026565  | 0.0026565  | 0.0026565  |   0.0 |  0.13
Output  | 0.0008385  | 0.0008385  | 0.0008385  |   0.0 |  0.04
Modify  | 0.21317    | 0.21317    | 0.21317    |   0.0 | 10.34
Other   |            | 0.007721   |            |       |  0.37

Nlocal:             62 ave          62 max          62 min
Histogram: 1 0 0 0 0 0 0 0 0 0
Nghost:            820 ave         820 max         820 min
Histogram: 1 0 0 0 0 0 0 0 0 0
Neighs:          17785 ave       17785 max       17785 min
Histogram: 1 0 0 0 0 0 0 0 0 0

Total # of neighbors = 17785
Ave neighs/atom = 286.85484
Neighbor list builds = 0
Dangerous builds = 0

# Minimize the with fire
  unfix           frb
  min_style       fire
  minimize        0.0 2.306e-2 10000 10000
  Parameters for fire:
    dmax  delaystep dtgrow dtshrink alpha0 alphashrink tmax tmin   integrator   halfstepback   abcfire  
     0.1     20      1.1     0.5     0.25     0.99      10  0.02 eulerimplicit      yes          no     
Per MPI rank memory allocation (min/avg/max) = 19.45 | 19.45 | 19.45 Mbytes
   Step          Temp          PotEng         Press            Lx             Ly             Xy      
     19747                     0   -11997.80418832833   0.5445169647659853    9.996054831299274    8.673393358667473     4.96920487581048
     19748  4.162191070587298e-14   -11997.80418833862   0.5445171734154454    9.996054831299274    8.673393358667473     4.96920487581048
Loop time of 0.011025 on 1 procs for 1 steps with 62 atoms

94.8% CPU use with 1 MPI tasks x no OpenMP threads

Minimization stats:
  Stopping criterion = force tolerance
  Energy initial, next-to-last, final = 
     -11997.8041883283  -11997.8041883283  -11997.8041883386
  Force two-norm initial, final = 0.020844994 0.020844992
  Force max component initial, final = 0.0045227168 0.0045227172
  Final line search alpha, max atom move = 0 0
  Iterations, force evaluations = 1 2

MPI task timing breakdown:
Section |  min time  |  avg time  |  max time  |%varavg| %total
---------------------------------------------------------------
Pair    | 0.0092211  | 0.0092211  | 0.0092211  |   0.0 | 83.64
Neigh   | 0          | 0          | 0          |   0.0 |  0.00
Comm    | 1.5799e-05 | 1.5799e-05 | 1.5799e-05 |   0.0 |  0.14
Output  | 0          | 0          | 0          |   0.0 |  0.00
Modify  | 0.0010378  | 0.0010378  | 0.0010378  |   0.0 |  9.41
Other   |            | 0.0007504  |            |       |  6.81

Nlocal:             62 ave          62 max          62 min
Histogram: 1 0 0 0 0 0 0 0 0 0
Nghost:            820 ave         820 max         820 min
Histogram: 1 0 0 0 0 0 0 0 0 0
Neighs:          17785 ave       17785 max       17785 min
Histogram: 1 0 0 0 0 0 0 0 0 0

Total # of neighbors = 17785
Ave neighs/atom = 286.85484
Neighbor list builds = 0
Dangerous builds = 0

next nr
jump ${simname}.in loopmin
jump ReaxFF.in loopmin

# Minimize the with cg + box/relax
  fix             frb all box/relax tri 0.0 couple none
  min_style       cg
  min_modify      line quadratic
  minimize        0.0 2.306e-2 10000 10000
WARNING: Energy due to 6 extra global DOFs will be included in minimizer energies
 (src/min.cpp:225)
Per MPI rank memory allocation (min/avg/max) = 20.58 | 20.58 | 20.58 Mbytes
   Step          Temp          PotEng         Press            Lx             Ly             Xy      
     19748  4.162191070587298e-14   -11997.80418826784   0.5445157976518358    9.996054831299274    8.673393358667473     4.96920487581048
     19753  4.162191070587298e-14    -11997.8041883289  -0.7501794708181521    9.996056135888791    8.673392548926325    4.969202818282764
Loop time of 0.100887 on 1 procs for 5 steps with 62 atoms

99.2% CPU use with 1 MPI tasks x no OpenMP threads

Minimization stats:
  Stopping criterion = linesearch alpha is zero
  Energy initial, next-to-last, final = 
     -11997.8041882678  -11997.8041883915  -11997.8041883289
  Force two-norm initial, final = 0.076446391 0.11930997
  Force max component initial, final = 0.065798849 0.10446419
  Final line search alpha, max atom move = 7.0729602e-07 7.3887103e-08
  Iterations, force evaluations = 5 29

MPI task timing breakdown:
Section |  min time  |  avg time  |  max time  |%varavg| %total
---------------------------------------------------------------
Pair    | 0.089054   | 0.089054   | 0.089054   |   0.0 | 88.27
Neigh   | 0          | 0          | 0          |   0.0 |  0.00
Comm    | 0.00012478 | 0.00012478 | 0.00012478 |   0.0 |  0.12
Output  | 0          | 0          | 0          |   0.0 |  0.00
Modify  | 0.010492   | 0.010492   | 0.010492   |   0.0 | 10.40
Other   |            | 0.001216   |            |       |  1.21

Nlocal:             62 ave          62 max          62 min
Histogram: 1 0 0 0 0 0 0 0 0 0
Nghost:            820 ave         820 max         820 min
Histogram: 1 0 0 0 0 0 0 0 0 0
Neighs:          17785 ave       17785 max       17785 min
Histogram: 1 0 0 0 0 0 0 0 0 0

Total # of neighbors = 17785
Ave neighs/atom = 286.85484
Neighbor list builds = 0
Dangerous builds = 0

# Minimize the with fire
  unfix           frb
  min_style       fire
  minimize        0.0 2.306e-2 10000 10000
  Parameters for fire:
    dmax  delaystep dtgrow dtshrink alpha0 alphashrink tmax tmin   integrator   halfstepback   abcfire  
     0.1     20      1.1     0.5     0.25     0.99      10  0.02 eulerimplicit      yes          no     
Per MPI rank memory allocation (min/avg/max) = 19.45 | 19.45 | 19.45 Mbytes
   Step          Temp          PotEng         Press            Lx             Ly             Xy      
     19753                     0    -11997.8041883526  -0.7501788397485769    9.996056135888791    8.673392548926325    4.969202818282764
     19800  7.930323297917925e-10    -11997.8041883068  -0.7491656504366054    9.996056135888791    8.673392548926325    4.969202818282764
     19890  4.854122362882557e-08    -11997.8041883654  -0.6910047850170283    9.996056135888791    8.673392548926325    4.969202818282764
Loop time of 0.464229 on 1 procs for 137 steps with 62 atoms

99.7% CPU use with 1 MPI tasks x no OpenMP threads

Minimization stats:
  Stopping criterion = force tolerance
  Energy initial, next-to-last, final = 
     -11997.8041883526  -11997.8041883933  -11997.8041883654
  Force two-norm initial, final = 0.026513933 0.023011473
  Force max component initial, final = 0.0050112114 0.0045192356
  Final line search alpha, max atom move = 0 0
  Iterations, force evaluations = 137 138

MPI task timing breakdown:
Section |  min time  |  avg time  |  max time  |%varavg| %total
---------------------------------------------------------------
Pair    | 0.41421    | 0.41421    | 0.41421    |   0.0 | 89.22
Neigh   | 0          | 0          | 0          |   0.0 |  0.00
Comm    | 0.00068554 | 0.00068554 | 0.00068554 |   0.0 |  0.15
Output  | 0.00065433 | 0.00065433 | 0.00065433 |   0.0 |  0.14
Modify  | 0.047281   | 0.047281   | 0.047281   |   0.0 | 10.18
Other   |            | 0.0014     |            |       |  0.30

Nlocal:             62 ave          62 max          62 min
Histogram: 1 0 0 0 0 0 0 0 0 0
Nghost:            820 ave         820 max         820 min
Histogram: 1 0 0 0 0 0 0 0 0 0
Neighs:          17785 ave       17785 max       17785 min
Histogram: 1 0 0 0 0 0 0 0 0 0

Total # of neighbors = 17785
Ave neighs/atom = 286.85484
Neighbor list builds = 0
Dangerous builds = 0

next nr
jump ${simname}.in loopmin
jump ReaxFF.in loopmin

# Minimize the with cg + box/relax
  fix             frb all box/relax tri 0.0 couple none
  min_style       cg
  min_modify      line quadratic
  minimize        0.0 2.306e-2 10000 10000
WARNING: Energy due to 6 extra global DOFs will be included in minimizer energies
 (src/min.cpp:225)
Per MPI rank memory allocation (min/avg/max) = 20.58 | 20.58 | 20.58 Mbytes
   Step          Temp          PotEng         Press            Lx             Ly             Xy      
     19890  4.854122362882557e-08   -11997.80418834341  -0.6910053401813556    9.996056135888791    8.673392548926325    4.969202818282764
     19900  4.854122362882557e-08   -11997.80419120972  -0.4344502381961072    9.996025581177303     8.67341451912413    4.969197990002119
     19962  4.854122362882557e-08   -11997.80419642616  -0.4282792078299072    9.996045889147149    8.673396386038954    4.969225666841329
Loop time of 0.940508 on 1 procs for 72 steps with 62 atoms

99.9% CPU use with 1 MPI tasks x no OpenMP threads

Minimization stats:
  Stopping criterion = linesearch alpha is zero
  Energy initial, next-to-last, final = 
     -11997.8041883434  -11997.8041964314  -11997.8041964262
  Force two-norm initial, final = 0.10857555 0.079316795
  Force max component initial, final = 0.094898511 0.055507176
  Final line search alpha, max atom move = 1.0757191e-06 5.9710131e-08
  Iterations, force evaluations = 72 276

MPI task timing breakdown:
Section |  min time  |  avg time  |  max time  |%varavg| %total
---------------------------------------------------------------
Pair    | 0.83874    | 0.83874    | 0.83874    |   0.0 | 89.18
Neigh   | 0          | 0          | 0          |   0.0 |  0.00
Comm    | 0.0011486  | 0.0011486  | 0.0011486  |   0.0 |  0.12
Output  | 0.00059315 | 0.00059315 | 0.00059315 |   0.0 |  0.06
Modify  | 0.096193   | 0.096193   | 0.096193   |   0.0 | 10.23
Other   |            | 0.003828   |            |       |  0.41

Nlocal:             62 ave          62 max          62 min
Histogram: 1 0 0 0 0 0 0 0 0 0
Nghost:            820 ave         820 max         820 min
Histogram: 1 0 0 0 0 0 0 0 0 0
Neighs:          17785 ave       17785 max       17785 min
Histogram: 1 0 0 0 0 0 0 0 0 0

Total # of neighbors = 17785
Ave neighs/atom = 286.85484
Neighbor list builds = 0
Dangerous builds = 0

# Minimize the with fire
  unfix           frb
  min_style       fire
  minimize        0.0 2.306e-2 10000 10000
  Parameters for fire:
    dmax  delaystep dtgrow dtshrink alpha0 alphashrink tmax tmin   integrator   halfstepback   abcfire  
     0.1     20      1.1     0.5     0.25     0.99      10  0.02 eulerimplicit      yes          no     
Per MPI rank memory allocation (min/avg/max) = 19.45 | 19.45 | 19.45 Mbytes
   Step          Temp          PotEng         Press            Lx             Ly             Xy      
     19962                     0   -11997.80419638087  -0.4282799433802825    9.996045889147149    8.673396386038954    4.969225666841329
     20000  2.311730448984134e-10   -11997.80419640104   -0.428308893591216    9.996045889147149    8.673396386038954    4.969225666841329
     20100  6.202918010844502e-08   -11997.80419644489   -0.437623915502281    9.996045889147149    8.673396386038954    4.969225666841329
     20108  7.068375931401106e-08   -11997.80419642048  -0.4394446829333836    9.996045889147149    8.673396386038954    4.969225666841329
Loop time of 0.486383 on 1 procs for 146 steps with 62 atoms

99.6% CPU use with 1 MPI tasks x no OpenMP threads

Minimization stats:
  Stopping criterion = force tolerance
  Energy initial, next-to-last, final = 
     -11997.8041963809  -11997.8041964152  -11997.8041964205
  Force two-norm initial, final = 0.030757175 0.022963188
  Force max component initial, final = 0.0070566566 0.0049673632
  Final line search alpha, max atom move = 0 0
  Iterations, force evaluations = 146 147

MPI task timing breakdown:
Section |  min time  |  avg time  |  max time  |%varavg| %total
---------------------------------------------------------------
Pair    | 0.43316    | 0.43316    | 0.43316    |   0.0 | 89.06
Neigh   | 0          | 0          | 0          |   0.0 |  0.00
Comm    | 0.0005885  | 0.0005885  | 0.0005885  |   0.0 |  0.12
Output  | 0.0017681  | 0.0017681  | 0.0017681  |   0.0 |  0.36
Modify  | 0.04974    | 0.04974    | 0.04974    |   0.0 | 10.23
Other   |            | 0.001131   |            |       |  0.23

Nlocal:             62 ave          62 max          62 min
Histogram: 1 0 0 0 0 0 0 0 0 0
Nghost:            820 ave         820 max         820 min
Histogram: 1 0 0 0 0 0 0 0 0 0
Neighs:          17785 ave       17785 max       17785 min
Histogram: 1 0 0 0 0 0 0 0 0 0

Total # of neighbors = 17785
Ave neighs/atom = 286.85484
Neighbor list builds = 0
Dangerous builds = 0

next nr
jump ${simname}.in loopmin
jump ReaxFF.in loopmin

# Minimize the with cg + box/relax
  fix             frb all box/relax tri 0.0 couple none
  min_style       cg
  min_modify      line quadratic
  minimize        0.0 2.306e-2 10000 10000
WARNING: Energy due to 6 extra global DOFs will be included in minimizer energies
 (src/min.cpp:225)
Per MPI rank memory allocation (min/avg/max) = 20.58 | 20.58 | 20.58 Mbytes
   Step          Temp          PotEng         Press            Lx             Ly             Xy      
     20108  7.068375931401106e-08   -11997.80419632576  -0.4394466448232824    9.996045889147149    8.673396386038954    4.969225666841329
     20139  7.068375931401106e-08   -11997.80419843059   0.9760228283215756    9.996039492970358     8.67339286056027    4.969209721667642
Loop time of 0.469688 on 1 procs for 31 steps with 62 atoms

99.9% CPU use with 1 MPI tasks x no OpenMP threads

Minimization stats:
  Stopping criterion = linesearch alpha is zero
  Energy initial, next-to-last, final = 
     -11997.8041963258  -11997.8041985326  -11997.8041984306
  Force two-norm initial, final = 0.073912411 0.1324608
  Force max component initial, final = 0.05178047 0.095931743
  Final line search alpha, max atom move = 7.8571423e-06 7.5374936e-07
  Iterations, force evaluations = 31 139

MPI task timing breakdown:
Section |  min time  |  avg time  |  max time  |%varavg| %total
---------------------------------------------------------------
Pair    | 0.41893    | 0.41893    | 0.41893    |   0.0 | 89.19
Neigh   | 0          | 0          | 0          |   0.0 |  0.00
Comm    | 0.00052496 | 0.00052496 | 0.00052496 |   0.0 |  0.11
Output  | 0          | 0          | 0          |   0.0 |  0.00
Modify  | 0.048299   | 0.048299   | 0.048299   |   0.0 | 10.28
Other   |            | 0.001935   |            |       |  0.41

Nlocal:             62 ave          62 max          62 min
Histogram: 1 0 0 0 0 0 0 0 0 0
Nghost:            820 ave         820 max         820 min
Histogram: 1 0 0 0 0 0 0 0 0 0
Neighs:          17785 ave       17785 max       17785 min
Histogram: 1 0 0 0 0 0 0 0 0 0

Total # of neighbors = 17785
Ave neighs/atom = 286.85484
Neighbor list builds = 0
Dangerous builds = 0

# Minimize the with fire
  unfix           frb
  min_style       fire
  minimize        0.0 2.306e-2 10000 10000
  Parameters for fire:
    dmax  delaystep dtgrow dtshrink alpha0 alphashrink tmax tmin   integrator   halfstepback   abcfire  
     0.1     20      1.1     0.5     0.25     0.99      10  0.02 eulerimplicit      yes          no     
Per MPI rank memory allocation (min/avg/max) = 19.45 | 19.45 | 19.45 Mbytes
   Step          Temp          PotEng         Press            Lx             Ly             Xy      
     20139                     0   -11997.80419845629   0.9760233274850736    9.996039492970358     8.67339286056027    4.969209721667642
     20200  3.619089682662034e-09     -11997.804198523   0.9717330851388932    9.996039492970358     8.67339286056027    4.969209721667642
     20255  3.203145044394537e-08   -11997.80419852762   0.9375522694506079    9.996039492970358     8.67339286056027    4.969209721667642
Loop time of 0.41495 on 1 procs for 116 steps with 62 atoms

96.4% CPU use with 1 MPI tasks x no OpenMP threads

Minimization stats:
  Stopping criterion = force tolerance
  Energy initial, next-to-last, final = 
     -11997.8041984563  -11997.8041985121  -11997.8041985276
  Force two-norm initial, final = 0.027704523 0.022975102
  Force max component initial, final = 0.0059038664 0.004681883
  Final line search alpha, max atom move = 0 0
  Iterations, force evaluations = 116 117

MPI task timing breakdown:
Section |  min time  |  avg time  |  max time  |%varavg| %total
---------------------------------------------------------------
Pair    | 0.37062    | 0.37062    | 0.37062    |   0.0 | 89.32
Neigh   | 0          | 0          | 0          |   0.0 |  0.00
Comm    | 0.00067826 | 0.00067826 | 0.00067826 |   0.0 |  0.16
Output  | 0.00037417 | 0.00037417 | 0.00037417 |   0.0 |  0.09
Modify  | 0.041879   | 0.041879   | 0.041879   |   0.0 | 10.09
Other   |            | 0.001403   |            |       |  0.34

Nlocal:             62 ave          62 max          62 min
Histogram: 1 0 0 0 0 0 0 0 0 0
Nghost:            820 ave         820 max         820 min
Histogram: 1 0 0 0 0 0 0 0 0 0
Neighs:          17785 ave       17785 max       17785 min
Histogram: 1 0 0 0 0 0 0 0 0 0

Total # of neighbors = 17785
Ave neighs/atom = 286.85484
Neighbor list builds = 0
Dangerous builds = 0

next nr
jump ${simname}.in loopmin
jump ReaxFF.in loopmin

# Minimize the with cg + box/relax
  fix             frb all box/relax tri 0.0 couple none
  min_style       cg
  min_modify      line quadratic
  minimize        0.0 2.306e-2 10000 10000
WARNING: Energy due to 6 extra global DOFs will be included in minimizer energies
 (src/min.cpp:225)
Per MPI rank memory allocation (min/avg/max) = 20.58 | 20.58 | 20.58 Mbytes
   Step          Temp          PotEng         Press            Lx             Ly             Xy      
     20255  3.203145044394537e-08   -11997.80419852775   0.9375525627880489    9.996039492970358     8.67339286056027    4.969209721667642
     20261  3.203145044394537e-08   -11997.80419855725   0.4305694016879906    9.996039061985009    8.673393314732998    4.969204876426307
Loop time of 0.165477 on 1 procs for 6 steps with 62 atoms

99.6% CPU use with 1 MPI tasks x no OpenMP threads

Minimization stats:
  Stopping criterion = linesearch alpha is zero
  Energy initial, next-to-last, final = 
     -11997.8041985278  -11997.8041985714  -11997.8041985573
  Force two-norm initial, final = 0.12518131 0.062415815
  Force max component initial, final = 0.091747759 0.049108991
  Final line search alpha, max atom move = 1.9793065e-06 9.7201744e-08
  Iterations, force evaluations = 6 48

MPI task timing breakdown:
Section |  min time  |  avg time  |  max time  |%varavg| %total
---------------------------------------------------------------
Pair    | 0.14674    | 0.14674    | 0.14674    |   0.0 | 88.68
Neigh   | 0          | 0          | 0          |   0.0 |  0.00
Comm    | 0.00019306 | 0.00019306 | 0.00019306 |   0.0 |  0.12
Output  | 0          | 0          | 0          |   0.0 |  0.00
Modify  | 0.017215   | 0.017215   | 0.017215   |   0.0 | 10.40
Other   |            | 0.001332   |            |       |  0.80

Nlocal:             62 ave          62 max          62 min
Histogram: 1 0 0 0 0 0 0 0 0 0
Nghost:            820 ave         820 max         820 min
Histogram: 1 0 0 0 0 0 0 0 0 0
Neighs:          17785 ave       17785 max       17785 min
Histogram: 1 0 0 0 0 0 0 0 0 0

Total # of neighbors = 17785
Ave neighs/atom = 286.85484
Neighbor list builds = 0
Dangerous builds = 0

# Minimize the with fire
  unfix           frb
  min_style       fire
  minimize        0.0 2.306e-2 10000 10000
  Parameters for fire:
    dmax  delaystep dtgrow dtshrink alpha0 alphashrink tmax tmin   integrator   halfstepback   abcfire  
     0.1     20      1.1     0.5     0.25     0.99      10  0.02 eulerimplicit      yes          no     
Per MPI rank memory allocation (min/avg/max) = 19.45 | 19.45 | 19.45 Mbytes
   Step          Temp          PotEng         Press            Lx             Ly             Xy      
     20261                     0   -11997.80419855756   0.4305693347821808    9.996039061985009    8.673393314732998    4.969204876426307
     20262  1.962861045485756e-14   -11997.80419856334   0.4305694888323214    9.996039061985009    8.673393314732998    4.969204876426307
Loop time of 0.0106019 on 1 procs for 1 steps with 62 atoms

94.3% CPU use with 1 MPI tasks x no OpenMP threads

Minimization stats:
  Stopping criterion = force tolerance
  Energy initial, next-to-last, final = 
     -11997.8041985576  -11997.8041985576  -11997.8041985633
  Force two-norm initial, final = 0.01431481 0.014314806
  Force max component initial, final = 0.0031592585 0.0031592572
  Final line search alpha, max atom move = 0 0
  Iterations, force evaluations = 1 2

MPI task timing breakdown:
Section |  min time  |  avg time  |  max time  |%varavg| %total
---------------------------------------------------------------
Pair    | 0.0088139  | 0.0088139  | 0.0088139  |   0.0 | 83.14
Neigh   | 0          | 0          | 0          |   0.0 |  0.00
Comm    | 1.2877e-05 | 1.2877e-05 | 1.2877e-05 |   0.0 |  0.12
Output  | 0          | 0          | 0          |   0.0 |  0.00
Modify  | 0.0010551  | 0.0010551  | 0.0010551  |   0.0 |  9.95
Other   |            | 0.00072    |            |       |  6.79

Nlocal:             62 ave          62 max          62 min
Histogram: 1 0 0 0 0 0 0 0 0 0
Nghost:            820 ave         820 max         820 min
Histogram: 1 0 0 0 0 0 0 0 0 0
Neighs:          17785 ave       17785 max       17785 min
Histogram: 1 0 0 0 0 0 0 0 0 0

Total # of neighbors = 17785
Ave neighs/atom = 286.85484
Neighbor list builds = 0
Dangerous builds = 0

next nr
jump ${simname}.in loopmin
jump ReaxFF.in loopmin

# Minimize the with cg + box/relax
  fix             frb all box/relax tri 0.0 couple none
  min_style       cg
  min_modify      line quadratic
  minimize        0.0 2.306e-2 10000 10000
WARNING: Energy due to 6 extra global DOFs will be included in minimizer energies
 (src/min.cpp:225)
Per MPI rank memory allocation (min/avg/max) = 20.58 | 20.58 | 20.58 Mbytes
   Step          Temp          PotEng         Press            Lx             Ly             Xy      
     20262  1.962861045485756e-14   -11997.80419855231   0.4305692542630827    9.996039061985009    8.673393314732998    4.969204876426307
     20263  1.962861045485756e-14   -11997.80419850144 -0.09489803637667993    9.996039127903613    8.673393394773186    4.969204879880483
Loop time of 0.0113546 on 1 procs for 1 steps with 62 atoms

94.5% CPU use with 1 MPI tasks x no OpenMP threads

Minimization stats:
  Stopping criterion = force tolerance
  Energy initial, next-to-last, final = 
     -11997.8041985523  -11997.8041985523  -11997.8041985014
  Force two-norm initial, final = 0.062415801 0.02021163
  Force max component initial, final = 0.049108989 0.01205669
  Final line search alpha, max atom move = 0.0020362871 2.4550883e-05
  Iterations, force evaluations = 1 2

MPI task timing breakdown:
Section |  min time  |  avg time  |  max time  |%varavg| %total
---------------------------------------------------------------
Pair    | 0.0093966  | 0.0093966  | 0.0093966  |   0.0 | 82.76
Neigh   | 0          | 0          | 0          |   0.0 |  0.00
Comm    | 1.4911e-05 | 1.4911e-05 | 1.4911e-05 |   0.0 |  0.13
Output  | 0          | 0          | 0          |   0.0 |  0.00
Modify  | 0.0011588  | 0.0011588  | 0.0011588  |   0.0 | 10.21
Other   |            | 0.0007843  |            |       |  6.91

Nlocal:             62 ave          62 max          62 min
Histogram: 1 0 0 0 0 0 0 0 0 0
Nghost:            820 ave         820 max         820 min
Histogram: 1 0 0 0 0 0 0 0 0 0
Neighs:          17785 ave       17785 max       17785 min
Histogram: 1 0 0 0 0 0 0 0 0 0

Total # of neighbors = 17785
Ave neighs/atom = 286.85484
Neighbor list builds = 0
Dangerous builds = 0

# Minimize the with fire
  unfix           frb
  min_style       fire
  minimize        0.0 2.306e-2 10000 10000
  Parameters for fire:
    dmax  delaystep dtgrow dtshrink alpha0 alphashrink tmax tmin   integrator   halfstepback   abcfire  
     0.1     20      1.1     0.5     0.25     0.99      10  0.02 eulerimplicit      yes          no     
Per MPI rank memory allocation (min/avg/max) = 19.45 | 19.45 | 19.45 Mbytes
   Step          Temp          PotEng         Press            Lx             Ly             Xy      
     20263                     0   -11997.80419854268 -0.09489755702867315    9.996039127903613    8.673393394773186    4.969204879880483
     20264  1.875737957365022e-14   -11997.80419855247 -0.09489727224502538    9.996039127903613    8.673393394773186    4.969204879880483
Loop time of 0.0109945 on 1 procs for 1 steps with 62 atoms

96.0% CPU use with 1 MPI tasks x no OpenMP threads

Minimization stats:
  Stopping criterion = force tolerance
  Energy initial, next-to-last, final = 
     -11997.8041985427  -11997.8041985427  -11997.8041985525
  Force two-norm initial, final = 0.01399352 0.013993515
  Force max component initial, final = 0.0029224456 0.0029224436
  Final line search alpha, max atom move = 0 0
  Iterations, force evaluations = 1 2

MPI task timing breakdown:
Section |  min time  |  avg time  |  max time  |%varavg| %total
---------------------------------------------------------------
Pair    | 0.009288   | 0.009288   | 0.009288   |   0.0 | 84.48
Neigh   | 0          | 0          | 0          |   0.0 |  0.00
Comm    | 2.1182e-05 | 2.1182e-05 | 2.1182e-05 |   0.0 |  0.19
Output  | 0          | 0          | 0          |   0.0 |  0.00
Modify  | 0.0010975  | 0.0010975  | 0.0010975  |   0.0 |  9.98
Other   |            | 0.0005879  |            |       |  5.35

Nlocal:             62 ave          62 max          62 min
Histogram: 1 0 0 0 0 0 0 0 0 0
Nghost:            820 ave         820 max         820 min
Histogram: 1 0 0 0 0 0 0 0 0 0
Neighs:          17785 ave       17785 max       17785 min
Histogram: 1 0 0 0 0 0 0 0 0 0

Total # of neighbors = 17785
Ave neighs/atom = 286.85484
Neighbor list builds = 0
Dangerous builds = 0

next nr
jump ${simname}.in loopmin
jump ReaxFF.in loopmin

# Minimize the with cg + box/relax
  fix             frb all box/relax tri 0.0 couple none
  min_style       cg
  min_modify      line quadratic
  minimize        0.0 2.306e-2 10000 10000
WARNING: Energy due to 6 extra global DOFs will be included in minimizer energies
 (src/min.cpp:225)
Per MPI rank memory allocation (min/avg/max) = 20.58 | 20.58 | 20.58 Mbytes
   Step          Temp          PotEng         Press            Lx             Ly             Xy      
     20264  1.875737957365022e-14   -11997.80419855719 -0.09489715339685907    9.996039127903613    8.673393394773186    4.969204879880483
     20268  1.875737957365022e-14   -11997.80419847828 -0.02354979727238007    9.996038764246268    8.673393703595146    4.969204974651674
Loop time of 0.102428 on 1 procs for 4 steps with 62 atoms

99.3% CPU use with 1 MPI tasks x no OpenMP threads

Minimization stats:
  Stopping criterion = force tolerance
  Energy initial, next-to-last, final = 
     -11997.8041985572  -11997.8041985581  -11997.8041984783
  Force two-norm initial, final = 0.020211592 0.014390072
  Force max component initial, final = 0.012056619 0.0036714835
  Final line search alpha, max atom move = 1.3045974e-05 4.789808e-08
  Iterations, force evaluations = 4 30

MPI task timing breakdown:
Section |  min time  |  avg time  |  max time  |%varavg| %total
---------------------------------------------------------------
Pair    | 0.090565   | 0.090565   | 0.090565   |   0.0 | 88.42
Neigh   | 0          | 0          | 0          |   0.0 |  0.00
Comm    | 0.00012667 | 0.00012667 | 0.00012667 |   0.0 |  0.12
Output  | 0          | 0          | 0          |   0.0 |  0.00
Modify  | 0.010518   | 0.010518   | 0.010518   |   0.0 | 10.27
Other   |            | 0.001218   |            |       |  1.19

Nlocal:             62 ave          62 max          62 min
Histogram: 1 0 0 0 0 0 0 0 0 0
Nghost:            820 ave         820 max         820 min
Histogram: 1 0 0 0 0 0 0 0 0 0
Neighs:          17785 ave       17785 max       17785 min
Histogram: 1 0 0 0 0 0 0 0 0 0

Total # of neighbors = 17785
Ave neighs/atom = 286.85484
Neighbor list builds = 0
Dangerous builds = 0

# Minimize the with fire
  unfix           frb
  min_style       fire
  minimize        0.0 2.306e-2 10000 10000
  Parameters for fire:
    dmax  delaystep dtgrow dtshrink alpha0 alphashrink tmax tmin   integrator   halfstepback   abcfire  
     0.1     20      1.1     0.5     0.25     0.99      10  0.02 eulerimplicit      yes          no     
Per MPI rank memory allocation (min/avg/max) = 19.45 | 19.45 | 19.45 Mbytes
   Step          Temp          PotEng         Press            Lx             Ly             Xy      
     20268                     0   -11997.80419852409 -0.02354873933176749    9.996038764246268    8.673393703595146    4.969204974651674
     20269  1.597216469301939e-14   -11997.80419853625 -0.02354841038714919    9.996038764246268    8.673393703595146    4.969204974651674
Loop time of 0.0106499 on 1 procs for 1 steps with 62 atoms

93.1% CPU use with 1 MPI tasks x no OpenMP threads

Minimization stats:
  Stopping criterion = force tolerance
  Energy initial, next-to-last, final = 
     -11997.8041985241  -11997.8041985241  -11997.8041985362
  Force two-norm initial, final = 0.012912863 0.012912866
  Force max component initial, final = 0.002527365 0.0025273654
  Final line search alpha, max atom move = 0 0
  Iterations, force evaluations = 1 2

MPI task timing breakdown:
Section |  min time  |  avg time  |  max time  |%varavg| %total
---------------------------------------------------------------
Pair    | 0.0087799  | 0.0087799  | 0.0087799  |   0.0 | 82.44
Neigh   | 0          | 0          | 0          |   0.0 |  0.00
Comm    | 1.5513e-05 | 1.5513e-05 | 1.5513e-05 |   0.0 |  0.15
Output  | 0          | 0          | 0          |   0.0 |  0.00
Modify  | 0.00099738 | 0.00099738 | 0.00099738 |   0.0 |  9.37
Other   |            | 0.000857   |            |       |  8.05

Nlocal:             62 ave          62 max          62 min
Histogram: 1 0 0 0 0 0 0 0 0 0
Nghost:            820 ave         820 max         820 min
Histogram: 1 0 0 0 0 0 0 0 0 0
Neighs:          17785 ave       17785 max       17785 min
Histogram: 1 0 0 0 0 0 0 0 0 0

Total # of neighbors = 17785
Ave neighs/atom = 286.85484
Neighbor list builds = 0
Dangerous builds = 0

next nr
jump ${simname}.in loopmin
jump ReaxFF.in loopmin

# Minimize the with cg + box/relax
  fix             frb all box/relax tri 0.0 couple none
  min_style       cg
  min_modify      line quadratic
  minimize        0.0 2.306e-2 10000 10000
WARNING: Energy due to 6 extra global DOFs will be included in minimizer energies
 (src/min.cpp:225)
Per MPI rank memory allocation (min/avg/max) = 20.58 | 20.58 | 20.58 Mbytes
   Step          Temp          PotEng         Press            Lx             Ly             Xy      
     20269  1.597216469301939e-14   -11997.80419853713  -0.0235486850829546    9.996038764246268    8.673393703595146    4.969204974651674
     20271  1.597216469301939e-14   -11997.80419854762    2.104519975753536    9.996036060117881    8.673395591795646     4.96920537919252
Loop time of 0.0964968 on 1 procs for 2 steps with 62 atoms

99.7% CPU use with 1 MPI tasks x no OpenMP threads

Minimization stats:
  Stopping criterion = linesearch alpha is zero
  Energy initial, next-to-last, final = 
     -11997.8041985371  -11997.8041985647  -11997.8041985476
  Force two-norm initial, final = 0.01439007 0.25363455
  Force max component initial, final = 0.0036714747 0.20095925
  Final line search alpha, max atom move = 1.2148761e-07 2.441406e-08
  Iterations, force evaluations = 2 28

MPI task timing breakdown:
Section |  min time  |  avg time  |  max time  |%varavg| %total
---------------------------------------------------------------
Pair    | 0.085755   | 0.085755   | 0.085755   |   0.0 | 88.87
Neigh   | 0          | 0          | 0          |   0.0 |  0.00
Comm    | 0.00010817 | 0.00010817 | 0.00010817 |   0.0 |  0.11
Output  | 0          | 0          | 0          |   0.0 |  0.00
Modify  | 0.0099235  | 0.0099235  | 0.0099235  |   0.0 | 10.28
Other   |            | 0.0007104  |            |       |  0.74

Nlocal:             62 ave          62 max          62 min
Histogram: 1 0 0 0 0 0 0 0 0 0
Nghost:            820 ave         820 max         820 min
Histogram: 1 0 0 0 0 0 0 0 0 0
Neighs:          17785 ave       17785 max       17785 min
Histogram: 1 0 0 0 0 0 0 0 0 0

Total # of neighbors = 17785
Ave neighs/atom = 286.85484
Neighbor list builds = 0
Dangerous builds = 0

# Minimize the with fire
  unfix           frb
  min_style       fire
  minimize        0.0 2.306e-2 10000 10000
  Parameters for fire:
    dmax  delaystep dtgrow dtshrink alpha0 alphashrink tmax tmin   integrator   halfstepback   abcfire  
     0.1     20      1.1     0.5     0.25     0.99      10  0.02 eulerimplicit      yes          no     
Per MPI rank memory allocation (min/avg/max) = 19.45 | 19.45 | 19.45 Mbytes
   Step          Temp          PotEng         Press            Lx             Ly             Xy      
     20271                     0   -11997.80419851401    2.104519243408381    9.996036060117881    8.673395591795646     4.96920537919252
     20272  2.908620436869993e-14   -11997.80419855522    2.104519971496531    9.996036060117881    8.673395591795646     4.96920537919252
Loop time of 0.0110127 on 1 procs for 1 steps with 62 atoms

94.9% CPU use with 1 MPI tasks x no OpenMP threads

Minimization stats:
  Stopping criterion = force tolerance
  Energy initial, next-to-last, final = 
      -11997.804198514   -11997.804198514  -11997.8041985552
  Force two-norm initial, final = 0.017425463 0.017425456
  Force max component initial, final = 0.0049145351 0.0049145325
  Final line search alpha, max atom move = 0 0
  Iterations, force evaluations = 1 2

MPI task timing breakdown:
Section |  min time  |  avg time  |  max time  |%varavg| %total
---------------------------------------------------------------
Pair    | 0.0092715  | 0.0092715  | 0.0092715  |   0.0 | 84.19
Neigh   | 0          | 0          | 0          |   0.0 |  0.00
Comm    | 1.4855e-05 | 1.4855e-05 | 1.4855e-05 |   0.0 |  0.13
Output  | 0          | 0          | 0          |   0.0 |  0.00
Modify  | 0.0010369  | 0.0010369  | 0.0010369  |   0.0 |  9.42
Other   |            | 0.0006895  |            |       |  6.26

Nlocal:             62 ave          62 max          62 min
Histogram: 1 0 0 0 0 0 0 0 0 0
Nghost:            820 ave         820 max         820 min
Histogram: 1 0 0 0 0 0 0 0 0 0
Neighs:          17785 ave       17785 max       17785 min
Histogram: 1 0 0 0 0 0 0 0 0 0

Total # of neighbors = 17785
Ave neighs/atom = 286.85484
Neighbor list builds = 0
Dangerous builds = 0

next nr
jump ${simname}.in loopmin
jump ReaxFF.in loopmin

# Minimize the with cg + box/relax
  fix             frb all box/relax tri 0.0 couple none
  min_style       cg
  min_modify      line quadratic
  minimize        0.0 2.306e-2 10000 10000
WARNING: Energy due to 6 extra global DOFs will be included in minimizer energies
 (src/min.cpp:225)
Per MPI rank memory allocation (min/avg/max) = 20.58 | 20.58 | 20.58 Mbytes
   Step          Temp          PotEng         Press            Lx             Ly             Xy      
     20272  2.908620436869993e-14   -11997.80419851751    2.104519513851028    9.996036060117881    8.673395591795646     4.96920537919252
     20276  2.908620436869993e-14    -11997.8041985159 -0.08309482774032037    9.996038840186399    8.673393636836257    4.969204859721825
Loop time of 0.125844 on 1 procs for 4 steps with 62 atoms

49.2% CPU use with 1 MPI tasks x no OpenMP threads

Minimization stats:
  Stopping criterion = force tolerance
  Energy initial, next-to-last, final = 
     -11997.8041985175  -11997.8041985561  -11997.8041985159
  Force two-norm initial, final = 0.25363447 0.016311927
  Force max component initial, final = 0.20095916 0.012518725
  Final line search alpha, max atom move = 0.00028168237 3.5263041e-06
  Iterations, force evaluations = 4 14

MPI task timing breakdown:
Section |  min time  |  avg time  |  max time  |%varavg| %total
---------------------------------------------------------------
Pair    | 0.055198   | 0.055198   | 0.055198   |   0.0 | 43.86
Neigh   | 0          | 0          | 0          |   0.0 |  0.00
Comm    | 6.6256e-05 | 6.6256e-05 | 6.6256e-05 |   0.0 |  0.05
Output  | 0          | 0          | 0          |   0.0 |  0.00
Modify  | 0.0063401  | 0.0063401  | 0.0063401  |   0.0 |  5.04
Other   |            | 0.06424    |            |       | 51.05

Nlocal:             62 ave          62 max          62 min
Histogram: 1 0 0 0 0 0 0 0 0 0
Nghost:            820 ave         820 max         820 min
Histogram: 1 0 0 0 0 0 0 0 0 0
Neighs:          17785 ave       17785 max       17785 min
Histogram: 1 0 0 0 0 0 0 0 0 0

Total # of neighbors = 17785
Ave neighs/atom = 286.85484
Neighbor list builds = 0
Dangerous builds = 0

# Minimize the with fire
  unfix           frb
  min_style       fire
  minimize        0.0 2.306e-2 10000 10000
  Parameters for fire:
    dmax  delaystep dtgrow dtshrink alpha0 alphashrink tmax tmin   integrator   halfstepback   abcfire  
     0.1     20      1.1     0.5     0.25     0.99      10  0.02 eulerimplicit      yes          no     
Per MPI rank memory allocation (min/avg/max) = 19.45 | 19.45 | 19.45 Mbytes
   Step          Temp          PotEng         Press            Lx             Ly             Xy      
     20276                     0   -11997.80419856888 -0.08309380874551252    9.996038840186399    8.673393636836257    4.969204859721825
     20277  7.289200546709546e-15   -11997.80419845827 -0.08309600171465595    9.996038840186399    8.673393636836257    4.969204859721825
Loop time of 0.0145905 on 1 procs for 1 steps with 62 atoms

27.1% CPU use with 1 MPI tasks x no OpenMP threads

Minimization stats:
  Stopping criterion = force tolerance
  Energy initial, next-to-last, final = 
     -11997.8041985689  -11997.8041985689  -11997.8041984583
  Force two-norm initial, final = 0.0087232935 0.0087232937
  Force max component initial, final = 0.0020872465 0.0020872416
  Final line search alpha, max atom move = 0 0
  Iterations, force evaluations = 1 2

MPI task timing breakdown:
Section |  min time  |  avg time  |  max time  |%varavg| %total
---------------------------------------------------------------
Pair    | 0.012197   | 0.012197   | 0.012197   |   0.0 | 83.59
Neigh   | 0          | 0          | 0          |   0.0 |  0.00
Comm    | 2.2686e-05 | 2.2686e-05 | 2.2686e-05 |   0.0 |  0.16
Output  | 0          | 0          | 0          |   0.0 |  0.00
Modify  | 0.0013042  | 0.0013042  | 0.0013042  |   0.0 |  8.94
Other   |            | 0.001067   |            |       |  7.31

Nlocal:             62 ave          62 max          62 min
Histogram: 1 0 0 0 0 0 0 0 0 0
Nghost:            820 ave         820 max         820 min
Histogram: 1 0 0 0 0 0 0 0 0 0
Neighs:          17785 ave       17785 max       17785 min
Histogram: 1 0 0 0 0 0 0 0 0 0

Total # of neighbors = 17785
Ave neighs/atom = 286.85484
Neighbor list builds = 0
Dangerous builds = 0

next nr
jump ${simname}.in loopmin
jump ReaxFF.in loopmin

# Minimize the with cg + box/relax
  fix             frb all box/relax tri 0.0 couple none
  min_style       cg
  min_modify      line quadratic
  minimize        0.0 2.306e-2 10000 10000
WARNING: Energy due to 6 extra global DOFs will be included in minimizer energies
 (src/min.cpp:225)
Per MPI rank memory allocation (min/avg/max) = 20.58 | 20.58 | 20.58 Mbytes
   Step          Temp          PotEng         Press            Lx             Ly             Xy      
     20277  7.289200546709546e-15   -11997.80419854307 -0.08309412267043634    9.996038840186399    8.673393636836257    4.969204859721825
     20279  7.289200546709546e-15   -11997.80419850125   0.6265088719520794    9.996038682993484    8.673393587534045    4.969204880786472
[...]
Other   |            | 0.0009648  |            |       |  8.76

Nlocal:             62 ave          62 max          62 min
Histogram: 1 0 0 0 0 0 0 0 0 0
Nghost:            820 ave         820 max         820 min
Histogram: 1 0 0 0 0 0 0 0 0 0
Neighs:          17785 ave       17785 max       17785 min
Histogram: 1 0 0 0 0 0 0 0 0 0

Total # of neighbors = 17785
Ave neighs/atom = 286.85484
Neighbor list builds = 0
Dangerous builds = 0

next nr
jump ${simname}.in loopmin
jump ReaxFF.in loopmin

# Minimize the with cg + box/relax
  fix             frb all box/relax tri 0.0 couple none
  min_style       cg
  min_modify      line quadratic
  minimize        0.0 2.306e-2 10000 10000
WARNING: Energy due to 6 extra global DOFs will be included in minimizer energies
 (src/min.cpp:225)
Per MPI rank memory allocation (min/avg/max) = 20.58 | 20.58 | 20.58 Mbytes
   Step          Temp          PotEng         Press            Lx             Ly             Xy      
     20509  2.609367832414525e-15   -11997.80419889561 -0.02663562309228987    9.996038222194706    8.673395347443579    4.969205164877653
     20511  2.609367832414525e-15   -11997.80419884774 -0.01040084903482441    9.996038219559512    8.673395344429787    4.969205150353121
Loop time of 0.0503599 on 1 procs for 2 steps with 62 atoms

99.2% CPU use with 1 MPI tasks x no OpenMP threads

Minimization stats:
  Stopping criterion = force tolerance
  Energy initial, next-to-last, final = 
     -11997.8041988956  -11997.8041988977  -11997.8041988477
  Force two-norm initial, final = 0.0068990788 0.0059684799
  Force max component initial, final = 0.0027804625 0.0019950675
  Final line search alpha, max atom move = 0.0031590264 6.3024709e-06
  Iterations, force evaluations = 2 14

MPI task timing breakdown:
Section |  min time  |  avg time  |  max time  |%varavg| %total
---------------------------------------------------------------
Pair    | 0.044465   | 0.044465   | 0.044465   |   0.0 | 88.29
Neigh   | 0          | 0          | 0          |   0.0 |  0.00
Comm    | 6.5389e-05 | 6.5389e-05 | 6.5389e-05 |   0.0 |  0.13
Output  | 0          | 0          | 0          |   0.0 |  0.00
Modify  | 0.0051144  | 0.0051144  | 0.0051144  |   0.0 | 10.16
Other   |            | 0.0007155  |            |       |  1.42

Nlocal:             62 ave          62 max          62 min
Histogram: 1 0 0 0 0 0 0 0 0 0
Nghost:            820 ave         820 max         820 min
Histogram: 1 0 0 0 0 0 0 0 0 0
Neighs:          17785 ave       17785 max       17785 min
Histogram: 1 0 0 0 0 0 0 0 0 0

Total # of neighbors = 17785
Ave neighs/atom = 286.85484
Neighbor list builds = 0
Dangerous builds = 0

# Minimize the with fire
  unfix           frb
  min_style       fire
  minimize        0.0 2.306e-2 10000 10000
  Parameters for fire:
    dmax  delaystep dtgrow dtshrink alpha0 alphashrink tmax tmin   integrator   halfstepback   abcfire  
     0.1     20      1.1     0.5     0.25     0.99      10  0.02 eulerimplicit      yes          no     
Per MPI rank memory allocation (min/avg/max) = 19.45 | 19.45 | 19.45 Mbytes
   Step          Temp          PotEng         Press            Lx             Ly             Xy      
     20511                     0   -11997.80419890179 -0.01040002924594532    9.996038219559512    8.673395344429787    4.969205150353121
     20512  2.600740160490971e-15    -11997.8041989066 -0.01039998285710264    9.996038219559512    8.673395344429787    4.969205150353121
Loop time of 0.0107933 on 1 procs for 1 steps with 62 atoms

94.2% CPU use with 1 MPI tasks x no OpenMP threads

Minimization stats:
  Stopping criterion = force tolerance
  Energy initial, next-to-last, final = 
     -11997.8041989018  -11997.8041989018  -11997.8041989066
  Force two-norm initial, final = 0.0052106176 0.0052106179
  Force max component initial, final = 0.001252013 0.0012520131
  Final line search alpha, max atom move = 0 0
  Iterations, force evaluations = 1 2

MPI task timing breakdown:
Section |  min time  |  avg time  |  max time  |%varavg| %total
---------------------------------------------------------------
Pair    | 0.0088974  | 0.0088974  | 0.0088974  |   0.0 | 82.43
Neigh   | 0          | 0          | 0          |   0.0 |  0.00
Comm    | 1.5195e-05 | 1.5195e-05 | 1.5195e-05 |   0.0 |  0.14
Output  | 0          | 0          | 0          |   0.0 |  0.00
Modify  | 0.0011024  | 0.0011024  | 0.0011024  |   0.0 | 10.21
Other   |            | 0.0007783  |            |       |  7.21

Nlocal:             62 ave          62 max          62 min
Histogram: 1 0 0 0 0 0 0 0 0 0
Nghost:            820 ave         820 max         820 min
Histogram: 1 0 0 0 0 0 0 0 0 0
Neighs:          17785 ave       17785 max       17785 min
Histogram: 1 0 0 0 0 0 0 0 0 0

Total # of neighbors = 17785
Ave neighs/atom = 286.85484
Neighbor list builds = 0
Dangerous builds = 0

next nr
jump ${simname}.in loopmin
jump ReaxFF.in loopmin

# Minimize the with cg + box/relax
  fix             frb all box/relax tri 0.0 couple none
  min_style       cg
  min_modify      line quadratic
  minimize        0.0 2.306e-2 10000 10000
WARNING: Energy due to 6 extra global DOFs will be included in minimizer energies
 (src/min.cpp:225)
Per MPI rank memory allocation (min/avg/max) = 20.58 | 20.58 | 20.58 Mbytes
   Step          Temp          PotEng         Press            Lx             Ly             Xy      
     20512  2.600740160490971e-15   -11997.80419890597 -0.01040004618280367    9.996038219559512    8.673395344429787    4.969205150353121
     20515  2.600740160490971e-15   -11997.80419883529 -0.01044877151143949    9.996038218713196     8.67339533358993    4.969204999732967
Loop time of 0.0668844 on 1 procs for 3 steps with 62 atoms

99.0% CPU use with 1 MPI tasks x no OpenMP threads

Minimization stats:
  Stopping criterion = force tolerance
  Energy initial, next-to-last, final = 
      -11997.804198906  -11997.8041988914  -11997.8041988353
  Force two-norm initial, final = 0.0059684474 0.0057735399
  Force max component initial, final = 0.0019950675 0.001977708
  Final line search alpha, max atom move = 0.0038225508 7.5598893e-06
  Iterations, force evaluations = 3 19

MPI task timing breakdown:
Section |  min time  |  avg time  |  max time  |%varavg| %total
---------------------------------------------------------------
Pair    | 0.059132   | 0.059132   | 0.059132   |   0.0 | 88.41
Neigh   | 0          | 0          | 0          |   0.0 |  0.00
Comm    | 8.1156e-05 | 8.1156e-05 | 8.1156e-05 |   0.0 |  0.12
Output  | 0          | 0          | 0          |   0.0 |  0.00
Modify  | 0.0066499  | 0.0066499  | 0.0066499  |   0.0 |  9.94
Other   |            | 0.001021   |            |       |  1.53

Nlocal:             62 ave          62 max          62 min
Histogram: 1 0 0 0 0 0 0 0 0 0
Nghost:            820 ave         820 max         820 min
Histogram: 1 0 0 0 0 0 0 0 0 0
Neighs:          17785 ave       17785 max       17785 min
Histogram: 1 0 0 0 0 0 0 0 0 0

Total # of neighbors = 17785
Ave neighs/atom = 286.85484
Neighbor list builds = 0
Dangerous builds = 0

# Minimize the with fire
  unfix           frb
  min_style       fire
  minimize        0.0 2.306e-2 10000 10000
  Parameters for fire:
    dmax  delaystep dtgrow dtshrink alpha0 alphashrink tmax tmin   integrator   halfstepback   abcfire  
     0.1     20      1.1     0.5     0.25     0.99      10  0.02 eulerimplicit      yes          no     
Per MPI rank memory allocation (min/avg/max) = 19.45 | 19.45 | 19.45 Mbytes
   Step          Temp          PotEng         Press            Lx             Ly             Xy      
     20515                     0   -11997.80419883941 -0.01044901815787769    9.996038218713196     8.67339533358993    4.969204999732967
     20516  2.459036919575803e-15   -11997.80419885028 -0.01044883062824725    9.996038218713196     8.67339533358993    4.969204999732967
Loop time of 0.0109794 on 1 procs for 1 steps with 62 atoms

91.3% CPU use with 1 MPI tasks x no OpenMP threads

Minimization stats:
  Stopping criterion = force tolerance
  Energy initial, next-to-last, final = 
     -11997.8041988394  -11997.8041988394  -11997.8041988503
  Force two-norm initial, final = 0.0050666792 0.0050666769
  Force max component initial, final = 0.0012490989 0.0012490988
  Final line search alpha, max atom move = 0 0
  Iterations, force evaluations = 1 2

MPI task timing breakdown:
Section |  min time  |  avg time  |  max time  |%varavg| %total
---------------------------------------------------------------
Pair    | 0.0088268  | 0.0088268  | 0.0088268  |   0.0 | 80.39
Neigh   | 0          | 0          | 0          |   0.0 |  0.00
Comm    | 2.5449e-05 | 2.5449e-05 | 2.5449e-05 |   0.0 |  0.23
Output  | 0          | 0          | 0          |   0.0 |  0.00
Modify  | 0.001055   | 0.001055   | 0.001055   |   0.0 |  9.61
Other   |            | 0.001072   |            |       |  9.76

Nlocal:             62 ave          62 max          62 min
Histogram: 1 0 0 0 0 0 0 0 0 0
Nghost:            820 ave         820 max         820 min
Histogram: 1 0 0 0 0 0 0 0 0 0
Neighs:          17785 ave       17785 max       17785 min
Histogram: 1 0 0 0 0 0 0 0 0 0

Total # of neighbors = 17785
Ave neighs/atom = 286.85484
Neighbor list builds = 0
Dangerous builds = 0

next nr
jump ${simname}.in loopmin
jump ReaxFF.in loopmin

# Minimize the with cg + box/relax
  fix             frb all box/relax tri 0.0 couple none
  min_style       cg
  min_modify      line quadratic
  minimize        0.0 2.306e-2 10000 10000
WARNING: Energy due to 6 extra global DOFs will be included in minimizer energies
 (src/min.cpp:225)
Per MPI rank memory allocation (min/avg/max) = 20.58 | 20.58 | 20.58 Mbytes
   Step          Temp          PotEng         Press            Lx             Ly             Xy      
     20516  2.459036919575803e-15   -11997.80419888458 -0.01044836471553351    9.996038218713196     8.67339533358993    4.969204999732967
     20518  2.459036919575803e-15   -11997.80419887403    0.253332340981796    9.996038180441563    8.673395296675045    4.969204988434174
Loop time of 0.0784714 on 1 procs for 2 steps with 62 atoms

99.3% CPU use with 1 MPI tasks x no OpenMP threads

Minimization stats:
  Stopping criterion = linesearch alpha is zero
  Energy initial, next-to-last, final = 
     -11997.8041988846  -11997.8041988945   -11997.804198874
  Force two-norm initial, final = 0.0057735324 0.03223666
  Force max component initial, final = 0.0019777105 0.022537638
  Final line search alpha, max atom move = 4.7944198e-05 1.080549e-06
  Iterations, force evaluations = 2 23

MPI task timing breakdown:
Section |  min time  |  avg time  |  max time  |%varavg| %total
---------------------------------------------------------------
Pair    | 0.069376   | 0.069376   | 0.069376   |   0.0 | 88.41
Neigh   | 0          | 0          | 0          |   0.0 |  0.00
Comm    | 8.6278e-05 | 8.6278e-05 | 8.6278e-05 |   0.0 |  0.11
Output  | 0          | 0          | 0          |   0.0 |  0.00
Modify  | 0.0080609  | 0.0080609  | 0.0080609  |   0.0 | 10.27
Other   |            | 0.0009486  |            |       |  1.21

Nlocal:             62 ave          62 max          62 min
Histogram: 1 0 0 0 0 0 0 0 0 0
Nghost:            820 ave         820 max         820 min
Histogram: 1 0 0 0 0 0 0 0 0 0
Neighs:          17785 ave       17785 max       17785 min
Histogram: 1 0 0 0 0 0 0 0 0 0

Total # of neighbors = 17785
Ave neighs/atom = 286.85484
Neighbor list builds = 0
Dangerous builds = 0

# Minimize the with fire
  unfix           frb
  min_style       fire
  minimize        0.0 2.306e-2 10000 10000
  Parameters for fire:
    dmax  delaystep dtgrow dtshrink alpha0 alphashrink tmax tmin   integrator   halfstepback   abcfire  
     0.1     20      1.1     0.5     0.25     0.99      10  0.02 eulerimplicit      yes          no     
Per MPI rank memory allocation (min/avg/max) = 19.45 | 19.45 | 19.45 Mbytes
   Step          Temp          PotEng         Press            Lx             Ly             Xy      
     20518                     0   -11997.80419884717   0.2533321389226684    9.996038180441563    8.673395296675045    4.969204988434174
     20519  2.600524144070889e-15   -11997.80419881003   0.2533312775705072    9.996038180441563    8.673395296675045    4.969204988434174
Loop time of 0.0106463 on 1 procs for 1 steps with 62 atoms

95.1% CPU use with 1 MPI tasks x no OpenMP threads

Minimization stats:
  Stopping criterion = force tolerance
  Energy initial, next-to-last, final = 
     -11997.8041988472  -11997.8041988472    -11997.80419881
  Force two-norm initial, final = 0.0052104073 0.0052104076
  Force max component initial, final = 0.0012473906 0.00124739
  Final line search alpha, max atom move = 0 0
  Iterations, force evaluations = 1 2

MPI task timing breakdown:
Section |  min time  |  avg time  |  max time  |%varavg| %total
---------------------------------------------------------------
Pair    | 0.0089688  | 0.0089688  | 0.0089688  |   0.0 | 84.24
Neigh   | 0          | 0          | 0          |   0.0 |  0.00
Comm    | 1.3372e-05 | 1.3372e-05 | 1.3372e-05 |   0.0 |  0.13
Output  | 0          | 0          | 0          |   0.0 |  0.00
Modify  | 0.0010181  | 0.0010181  | 0.0010181  |   0.0 |  9.56
Other   |            | 0.000646   |            |       |  6.07

Nlocal:             62 ave          62 max          62 min
Histogram: 1 0 0 0 0 0 0 0 0 0
Nghost:            820 ave         820 max         820 min
Histogram: 1 0 0 0 0 0 0 0 0 0
Neighs:          17785 ave       17785 max       17785 min
Histogram: 1 0 0 0 0 0 0 0 0 0

Total # of neighbors = 17785
Ave neighs/atom = 286.85484
Neighbor list builds = 0
Dangerous builds = 0

next nr
jump ${simname}.in loopmin
jump ReaxFF.in loopmin

# Minimize the with cg + box/relax
  fix             frb all box/relax tri 0.0 couple none
  min_style       cg
  min_modify      line quadratic
  minimize        0.0 2.306e-2 10000 10000
Per MPI rank memory allocation (min/avg/max) = 20.58 | 20.58 | 20.58 Mbytes
   Step          Temp          PotEng         Press            Lx             Ly             Xy      
WARNING: Too many warnings: 101 vs 100. All future warnings will be suppressed (src/thermo.cpp:472)
     20519  2.600524144070889e-15   -11997.80419887753   0.2533325910374991    9.996038180441563    8.673395296675045    4.969204988434174
     20520  2.600524144070889e-15    -11997.8041988592   0.2533324237597387    9.996038180441563    8.673395296675045    4.969204988434174
Loop time of 0.0702506 on 1 procs for 1 steps with 62 atoms

72.5% CPU use with 1 MPI tasks x no OpenMP threads

Minimization stats:
  Stopping criterion = linesearch alpha is zero
  Energy initial, next-to-last, final = 
     -11997.8041988775  -11997.8041988775  -11997.8041988592
  Force two-norm initial, final = 0.032236691 0.032236677
  Force max component initial, final = 0.02253766 0.022537665
  Final line search alpha, max atom move = 8.6660503e-06 1.9531254e-07
  Iterations, force evaluations = 1 14

MPI task timing breakdown:
Section |  min time  |  avg time  |  max time  |%varavg| %total
---------------------------------------------------------------
Pair    | 0.045532   | 0.045532   | 0.045532   |   0.0 | 64.81
Neigh   | 0          | 0          | 0          |   0.0 |  0.00
Comm    | 5.8454e-05 | 5.8454e-05 | 5.8454e-05 |   0.0 |  0.08
Output  | 0          | 0          | 0          |   0.0 |  0.00
Modify  | 0.0050858  | 0.0050858  | 0.0050858  |   0.0 |  7.24
Other   |            | 0.01957    |            |       | 27.86

Nlocal:             62 ave          62 max          62 min
Histogram: 1 0 0 0 0 0 0 0 0 0
Nghost:            820 ave         820 max         820 min
Histogram: 1 0 0 0 0 0 0 0 0 0
Neighs:          17785 ave       17785 max       17785 min
Histogram: 1 0 0 0 0 0 0 0 0 0

Total # of neighbors = 17785
Ave neighs/atom = 286.85484
Neighbor list builds = 0
Dangerous builds = 0

# Minimize the with fire
  unfix           frb
  min_style       fire
  minimize        0.0 2.306e-2 10000 10000
  Parameters for fire:
    dmax  delaystep dtgrow dtshrink alpha0 alphashrink tmax tmin   integrator   halfstepback   abcfire  
     0.1     20      1.1     0.5     0.25     0.99      10  0.02 eulerimplicit      yes          no     
Per MPI rank memory allocation (min/avg/max) = 19.45 | 19.45 | 19.45 Mbytes
   Step          Temp          PotEng         Press            Lx             Ly             Xy      
     20520                     0   -11997.80419884409   0.2533319247905682    9.996038180441563    8.673395296675045    4.969204988434174
     20521  2.600529418088683e-15   -11997.80419876758   0.2533301498507045    9.996038180441563    8.673395296675045    4.969204988434174
Loop time of 0.0126224 on 1 procs for 1 steps with 62 atoms

83.7% CPU use with 1 MPI tasks x no OpenMP threads

Minimization stats:
  Stopping criterion = force tolerance
  Energy initial, next-to-last, final = 
     -11997.8041988441  -11997.8041988441  -11997.8041987676
  Force two-norm initial, final = 0.0052104057 0.0052104
  Force max component initial, final = 0.00124739 0.0012473903
  Final line search alpha, max atom move = 0 0
  Iterations, force evaluations = 1 2

MPI task timing breakdown:
Section |  min time  |  avg time  |  max time  |%varavg| %total
---------------------------------------------------------------
Pair    | 0.0093144  | 0.0093144  | 0.0093144  |   0.0 | 73.79
Neigh   | 0          | 0          | 0          |   0.0 |  0.00
Comm    | 1.7901e-05 | 1.7901e-05 | 1.7901e-05 |   0.0 |  0.14
Output  | 0          | 0          | 0          |   0.0 |  0.00
Modify  | 0.0010618  | 0.0010618  | 0.0010618  |   0.0 |  8.41
Other   |            | 0.002228   |            |       | 17.65

Nlocal:             62 ave          62 max          62 min
Histogram: 1 0 0 0 0 0 0 0 0 0
Nghost:            820 ave         820 max         820 min
Histogram: 1 0 0 0 0 0 0 0 0 0
Neighs:          17785 ave       17785 max       17785 min
Histogram: 1 0 0 0 0 0 0 0 0 0

Total # of neighbors = 17785
Ave neighs/atom = 286.85484
Neighbor list builds = 0
Dangerous builds = 0

next nr
jump ${simname}.in loopmin
jump ReaxFF.in loopmin

variable        energy equal pe
fix             output all ave/time 1 1 1 v_energy file ${simname}_energy.data
fix             output all ave/time 1 1 1 v_energy file ReaxFF_energy.data
dump            dump1 all custom 1 ${simname}.lammpstrj id type x y z fx fy fz
dump            dump1 all custom 1 ReaxFF.lammpstrj id type x y z fx fy fz
dump_modify     dump1 sort id

fix             nve all nve
run             0
Per MPI rank memory allocation (min/avg/max) = 19.45 | 19.45 | 19.45 Mbytes
   Step          Temp          PotEng         Press            Lx             Ly             Xy      
     20521  2.600529418088683e-15   -11997.80419886877   0.2533325004650825    9.996038180441563    8.673395296675045    4.969204988434174
Loop time of 6.68e-07 on 1 procs for 0 steps with 62 atoms

598.8% CPU use with 1 MPI tasks x no OpenMP threads

MPI task timing breakdown:
Section |  min time  |  avg time  |  max time  |%varavg| %total
---------------------------------------------------------------
Pair    | 0          | 0          | 0          |   0.0 |  0.00
Neigh   | 0          | 0          | 0          |   0.0 |  0.00
Comm    | 0          | 0          | 0          |   0.0 |  0.00
Output  | 0          | 0          | 0          |   0.0 |  0.00
Modify  | 0          | 0          | 0          |   0.0 |  0.00
Other   |            | 6.68e-07   |            |       |100.00

Nlocal:             62 ave          62 max          62 min
Histogram: 1 0 0 0 0 0 0 0 0 0
Nghost:            820 ave         820 max         820 min
Histogram: 1 0 0 0 0 0 0 0 0 0
Neighs:          17785 ave       17785 max       17785 min
Histogram: 1 0 0 0 0 0 0 0 0 0

Total # of neighbors = 17785
Ave neighs/atom = 286.85484
Neighbor list builds = 0
Dangerous builds = 0
Total wall time: 0:01:57
