units           metal
atom_style      atomic
boundary        p p p
processors		  * * 1
read_data		    AB2.data
Reading data file ...
  triclinic box = (0 0 0) to (9.7780633 8.5055227 49.730763) with tilt (4.8257792 0.29560231 0.17731162)
WARNING: Triclinic box skew is large. LAMMPS will run inefficiently. (src/domain.cpp:220)
  1 by 1 by 1 MPI processor grid
  reading atoms ...
  62 atoms
  read_data CPU = 0.008 seconds
mass            1 12.011

# Define potentials
pair_style      tersoff
pair_coeff      * * BNC.tersoff C
Reading tersoff potential file BNC.tersoff with DATE: 2013-03-21


# Variable
variable        thermofrq equal 10
variable        Nloop equal 100     # number of loop to run
variable        binding equal pe


# Output
thermo          ${thermofrq}
thermo          10
thermo_style    custom step temp pe lx ly lz pxx pyy pzz fmax fnorm
thermo_modify   line one format float %20.16g
thermo_modify   flush yes norm no lost warn

# Minimize the system in loops
timestep        1.0e-3
variable        nr loop ${Nloop}
variable        nr loop 100
label           loopmin

# Minimize the with cg + box/relax
  fix             frb all box/relax tri 0.0 couple none
  min_style       cg
  min_modify      line quadratic
  minimize        0.0 1.0e-3 10000 10000
Neighbor list info ...
  update: every = 1 steps, delay = 0 steps, check = yes
  max neighbors/atom: 2000, page size: 100000
  master list distance cutoff = 4.1
  ghost atom cutoff = 4.1
  binsize = 2.05, bins = 8 5 25
  1 neighbor lists, perpetual/occasional/extra = 1 0 0
  (1) pair tersoff, perpetual
      attributes: full, newton on
      pair build: full/bin/atomonly
      stencil: full/bin/3d
      bin: standard
WARNING: Energy due to 6 extra global DOFs will be included in minimizer energies
 (src/min.cpp:225)
Per MPI rank memory allocation (min/avg/max) = 4.202 | 4.202 | 4.202 Mbytes
   Step          Temp          PotEng           Lx             Ly             Lz            Pxx            Pyy            Pzz            Fmax          Fnorm     
         0                     0   -485.3573349621388    9.778063253799999         8.5055227422        49.7307626741    16801.41609296312    18362.70058900824    -949.232294854194     5.71906313191808    15.27046483765399
        10                     0    -485.447783399766    9.787011829851687    8.514028264942196    49.72804658297764    15389.39843235853    16812.99173964397   -980.5790409902368    5.749922181203875    15.26022871352236
        20                     0   -485.5307925823614    9.795964623354692     8.52253378768439    49.72497173335952    13990.27152012317    15278.50354812425   -1010.745514951195    5.779769679726618    15.24962070960835
        30                     0   -485.6066085652562    9.804921656876459    8.531039310426586    49.72146965035313    12603.93785307832    13759.13607795763   -1039.611274558722    5.808545566750148    15.23813678287789
        40                     0   -485.6755181322781    9.813882945163622    8.539544833168781    49.71744978518804     11230.3119969697    12254.80506226259   -1067.014241179565    5.836167113901361    15.22516946532314
        50                     0   -485.7378668479668    9.822848488756676    8.548050355910977    49.71278878947653    9869.327984142003    10765.45081073542   -1092.730291934041    5.862517893198753     15.2099554099353
        60                     0    -485.794089083087    9.831818262092366    8.556555878653171    49.70731232549736     8520.95260341362    9291.053867516588   -1116.438545749328      5.8874290688104    15.19148670335672
        70                     0   -485.8447614339527    9.840792190138576    8.565061401395367    49.70076213049204     7185.21077828175     7831.66431392207   -1137.658302529617    5.910645528675341    15.16835064080067
        80                     0   -485.8907064144167    9.849770099060228    8.573566924137562    49.69273109731772    5862.238118748935    6387.461308188521    -1155.62429617431    5.931759140874593    15.13841427196659
        90                     0   -485.9332188945199    9.858751600866327    8.582072446879756    49.68251971278637    4552.402606098698    4958.888500155268   -1169.009696176849    5.950061162328605    15.09812659504458
       100                     0   -485.9746522538807    9.867735779719542    8.590577969621952    49.66876107759468    3256.636530593378    3547.017155259777   -1175.199026254483    5.964156508590438     15.0406915086847
       110                     0   -486.0204146295915     9.87672010013177    8.599083492364148    49.64813883591685    1977.620183746724    2154.819906250569   -1167.786182245078     5.97064190720681    14.94978420205988
       120                     0   -486.0861477812962    9.885260818477271    8.607177719507629     49.6106702918459    786.4776222730261    859.4765108822921   -1125.658086502955    5.957882213992198    14.77546993508424
       130                     0   -486.1662188558016    9.889469855453292    8.611187019366191    49.56100280355156     230.307639175522    254.2685173188023   -1042.943200380628    5.918637233193417    14.53201503296905
       140                     0   -486.2479727148449    9.890861996084945     8.61252970208945    49.51127204087749    79.10943702176444    88.49985777716719   -947.6017608759126     5.86869727482301    14.27421528623491
       150                     0   -486.3344066872004    9.891480957730579    8.613130986358794    49.46154127820342    42.68434426488972    47.37698498235123   -846.1731023807699    5.812108399596202    13.99857918218225
       160                     0   -486.4275881566558    9.891941632257518    8.613569797123377    49.41181051552935    35.19820920823533    37.92026527778877   -739.8798112713376    5.748156599641018     13.6991949676524
       170                     0   -486.5301365664664    9.892421177523662    8.614012137110771    49.36207975285527    33.86482209996296    35.33572170656208    -627.993571966082    5.674089846388688    13.36723869982257
       180                     0   -486.6464397475235    9.892984972825895    8.614515869540572     49.3123489901812    33.52478261498371    33.88209380455128   -508.4617816291483    5.584950131222314    12.98779827189131
       190                     0   -486.7854612122673    9.893699736649817    8.615133336266233    49.26261822750713    33.21116774233951    32.37572617646151   -376.8603239858206    5.470672780884233    12.53056505516535
       200                     0   -486.9729294185638    9.894740698644521      8.6159961479014    49.21288746483305    32.68486853893096    30.37715871988897   -220.3829171692308      5.3022904708293    11.90865444169671
       210                     0   -487.3341331457719    9.897023899471732    8.617765124112182    49.17398004356144    31.22887437830643    26.53468306769881    10.06789645605638    4.927032822369662    10.69661319844133
       220                     0   -487.6722680607224    9.899544542823119    8.619559500444133     49.2072597415976     29.2323064391452    22.96168470092348    139.1653974486897    4.508517608498432    9.553296993099645
       230                     0   -487.8729613211806    9.901244620837797    8.620696810973882    49.25699050427167    27.75651747840123    20.86410306006849    181.8608631969045    4.227012192432973    8.871497880263712
       240                     0   -488.0206749020188      9.9026050789021    8.621572909672707    49.30672126694574    26.51967735131023    19.31866941059409    200.6977700049248    4.003431677710747    8.367141718989863
       250                     0   -488.1440095658441    9.903818020098845    8.622331891688914    49.35645202961982    25.38198353250963    18.02023384241836    209.8205737972764    3.805954043248526    7.943695057400486
       260                     0   -488.2522266520302    9.904944064489635    8.623019694926102    49.40618279229388    24.30332744371849    16.87301350873989    213.7509231258303    3.624590823078556    7.569910442799083
       270                     0   -488.3497095468409    9.906010932631876    8.623657643711352    49.45591355496796    23.26724520249302    15.83299163215333    214.5912876989207    3.454805579676105    7.230989270032318
       280                     0   -488.4389301293937    9.907033523189041    8.624257463624989    49.50564431764203    22.26609010024679    14.87613444594523    213.4949133213931    3.294175177357644    6.918577683700454
       290                     0   -488.5214378354197    9.908020584784945    8.624826276604008     49.5553750803161     21.2961978798538    13.98786423150697    211.1549476487063    3.141278560863118    6.627433727874698
       300                     0   -488.5982776396256    9.908977535231667    8.625368710234621    49.60510584299018    20.35586680565457     13.1586240849604    208.0114826268975    2.995226612673822    6.354020107137595
       310                     0   -488.6701945904373    9.909907845043264    8.625887929591991    49.65483660566425    19.44437940622332    12.38171448434775    204.3535110948805    2.855431594636343    6.095816455923712
       320                     0   -488.7377444299626    9.910813789207705    8.626386194449905    49.70456736833832    18.56148487915325    11.65213288582638    200.3747080594739    2.721482527630098     5.85094807985936
       330                     0   -488.8013578799204    9.911696885917213    8.626865181424312     49.7542981310124    17.70711321977357    10.96591277522122    196.2063725574933    2.593073429750969    5.617970696717051
       340                     0   -488.8613800440465    9.912558165613467    8.627326179112494    49.80402889368646    16.88121723498043    10.31973456830528    191.9379980528362    2.469960429597446    5.395738779064152
       350                     0   -488.9179031367725    9.913395444980196    8.627768687734999    49.85358628615789    16.08642388042303    9.712764008169525    187.6457013345569    2.352339604210851    5.184047191695029
       360                     0   -488.9695253508705    9.914183498368777    8.628180229965874    49.90137918095908    15.34647423820743    9.159973265081229    183.5084858377919    2.243528540134097    4.988419775408146
       370                     0   -489.0165268458199    9.914921414739052    8.628561334788351    49.94719809251048    14.66130720442012     8.65800707125018    179.5680071072204    2.143325385645198    4.808188134482767
       380                     0   -489.0595428424126    9.915614646110132    8.628915676739144    49.99123638377672    14.02480087326187    8.199674734699489    175.8189254666424    2.050683743814918    4.641292309699789
       390                     0   -489.0990915016514    9.916267798308663     8.62924630225106     50.0336611935594    13.43170744709863    7.779075911860332    172.2514939585902    1.964724562875709    4.486055526055811
       400                     0      -489.1356005545    9.916884796277849    8.629555762207161    50.07461751275077    12.87751167979131      7.3913280231577    168.8542214317308    1.884703821981169    4.341096050679194
       410                     0   -489.1694268440019    9.917469011272718    8.629846211829856    50.11423168069131    12.35831261773734    7.032360026404445    165.6152621526654    1.809987428525034    4.205262656380259
       420                     0   -489.2008709106825    9.918023359918095    8.630119487030358    50.15261431624117    11.87072550144194    6.698754087221467    162.5231203574261    1.740031516713742    4.077586583353948
       430                     0   -489.2301880456527     9.91855038221634    8.630377163511499    50.18986274980484    11.41180064302137     6.38762250345716    159.5669839658606    1.674366837881134    3.957245245039946
       440                     0   -489.2575967831913    9.919052303611751     8.63062060304593    50.22606303397824    10.97895635740248    6.096510997026951    156.7368580060272    1.612586283834261    3.843534433369743
       450                     0   -489.2832855082698    9.919531084840623     8.63085099008986     50.2612916060178    10.56992346860202    5.823322027514693     154.023591412876    1.554334833144075    3.735846768033537
       460                     0   -489.3074176565617    9.919988462324261    8.631069361025629    50.29561666555109    10.18269927235218    5.566253468589054    151.4188490091027    1.499301388672301    3.633654796083216
       470                     0   -489.3301358497839    9.920425981167229     8.63127662772022    50.32909932033267     9.81550924140082    5.323749222099845    148.9150573484054    1.447212104047821     3.53649759871654
       480                     0   -489.3515652161103    9.920845022320181    8.631473596656694    50.36179454313385    9.466775056601334    5.094459170130307    146.5053401887614    1.397824891818615    3.443970073936207
       490                     0   -489.3718160799335    9.921246825098128    8.631660984585745    50.39375197457993     9.13508782664627    4.877206514107066    144.1834520895835    1.350924876421725    3.355714282859665
       500                     0    -489.390986158624    9.921632505972358     8.63183943141877    50.42501659994524    8.819185555893901    4.670960980052664    141.9437145467754     1.30632060787655    3.271412403505797
       510                     0   -489.4091623702706    9.922003074350082    8.632009510916994    50.45562932242542    8.517934117981492    4.474816730547885    139.7809567497713    1.263840891966737    3.190780948456276
       520                     0   -489.4264223317714    9.922359445901874    8.632171739607024    50.48562745101592    8.230311124608043    4.287974063458416    137.6904617816868    1.223332123099997    3.113565984939011
       530                     0   -489.4428356084479    9.922702453879566    8.632326584259305     50.5150451176303    7.955392188024184     4.10972417648463    135.6679183811614    1.184656029390162    3.039539156501273
       540                     0   -489.4584647627628    9.923032858776997    8.632474468194777     50.5439136353129    7.692339182859013     3.93943643657046    133.7093780116734    1.147687757611262    2.968494350627767
       550                     0    -489.473366239463    9.923351356616189     8.63261577663032    50.57226180718582    7.440390167645805     3.77654769416891    131.8112168362162    1.112314239828429    2.900244890656828
       560                     0   -489.4875911166546    9.923658586086919    8.632750861231273    50.60011619400533    7.198850708502362    3.620553273274687    129.9701021066587    1.078432794567298    2.834621156175104
       570                     0   -489.5011857463072     9.92395513472484    8.632880044006365    50.62750134678746    6.967086377046072    3.470999356204135    128.1829624877346    1.045949924200151    2.771468555838476
       580                     0    -489.514192303043    9.924241544279388    8.633003620654558    50.65444000982691    6.744516235035898     3.32747651447746    126.4469618557804    1.014780277186574    2.710645791839119
       590                     0   -489.5266492564356    9.924518315395614    8.633121863452848    50.68095329851665    6.530607168965907    3.189614196667018    124.7594761460058   0.9848457493891551    2.652023367102718
       600                     0   -489.5385917791671    9.924785911712542    8.633235023757869    50.70706085563229    6.324868933228479    3.057076017393933    123.1180728724057   0.9560747031938313    2.595482295614217
       610                     0   -489.5500521011614    9.925044763463099    8.633343334181188    50.73278098914122    6.126849810928166    2.929555712489913    121.5204929874785   0.9284012867798737    2.540912983597776
       620                     0   -489.5610598179954    9.925295270646643    8.633447010487643    50.75813079410237    5.936132797390412    2.806773662099451    119.9646347824525    0.901764838840883    2.488214255116433
       630                     0   -489.5716421604374    9.925537805833484    8.633546253257846    50.78312626081718    5.752332232119731    2.688473882437849     118.448539578084   0.8761093664743527    2.437292500300673
       640                     0   -489.5818242308085    9.925772716651451    8.633641249348898    50.80778237105729    5.575090823224873    2.574421427659435    116.9703789779449   0.8513830859170923    2.388060928169589
       650                     0   -489.5916292109181    9.926000327996706    8.633732173182022    50.83211318391947     5.40407700969106    2.464400121298838    115.5284434942164   0.8275380174455513    2.340438909025798
       660                     0    -489.601078545548    9.926220944004729    8.633819187880967     50.8561319126261    5.238982613864737    2.358210592070003    114.1211323783525   0.8045296270908437    2.294351393867626
       670                     0   -489.6101921048278    9.926434849811937     8.63390244628158    50.87985099340017    5.079520751916364     2.25566854666449    112.7469445073049   0.7823165089410722    2.249728400271076
       680                     0   -489.6189883283348    9.926642313134042    8.633982091829571    50.90328214738068    4.925423963583899    2.156603260601277    111.4044702033484   0.7608601027301916    2.206504555842411
       690                     0   -489.6274843533072    9.926843585683509    8.634058259381048    50.92643643641129    4.776442543599146    2.060856249184842    110.0923838745419   0.7401244421889821     2.16461869170435
       700                     0   -489.6356961290172    9.927038904445366    8.634131075918202    50.94932431341973    4.632343040295205    1.968280099343804    108.8094373858227   0.7200759302861961    2.124013479605159
       710                     0   -489.6436385190433    9.927228492828025     8.63420066119077     50.9719556680101    4.492906902123749    1.878737431377599    107.5544540658694     0.70068313802782    2.084635107179169
       720                     0   -489.6513253929337    9.927412561703367    8.634267128292334    50.99433986780665    4.357929270382695    1.792099984449588    106.3263232927595   0.6819166239647743    2.046432986673348
       730                     0    -489.658769708544    9.927591310348765    8.634330584179274    51.01648579602019    4.227217875948553    1.708247799695106    105.1239955825989   0.6637487719222364    2.009359493108052
       740                     0   -489.6659835861632      9.9277649273018    8.634391130139113    51.03840188564619    4.100592048516757    1.627068495331792    103.9464781305697   0.6461536448216876    1.973369728401166
       750                     0   -489.6729783753709    9.927933591137167    8.634448862214139    51.06009615065402     3.97788182164456    1.548456616636953    102.7928307562177   0.6291068527364843    1.938421308448848
       760                     0   -489.6797647154776    9.928097471174189    8.634503871585279    51.08157621448228    3.858927113054798    1.472313058232683    101.6621622071158   0.6125854335656769    1.904474170556108
       770                     0   -489.6863525902431     9.92825672812212    8.634556244920748    51.10284933611701    3.743576987344317     1.39854453855953    100.5536267894979    0.596567744921785    1.871490398946088
       780                     0     -489.69275137753    9.928411514669744    8.634606064693196    51.12392243399743    3.631688976645585    1.327063136865881    99.46642128121759   0.5810333659961557     1.83943406637412
       790                     0   -489.6989698944262     9.92856197602487    8.634653409468811    51.14480210796454    3.523128472814796    1.257785865648526    98.39978211243341   0.5659630083318525    1.808271090106892
       800                     0   -489.7050164383205    9.928708250408793    8.634698354171256    51.16549465944412     3.41776816075521    1.190634293211753    97.35298277544643   0.5513384345545873     1.77796910075503
       810                     0   -489.7108988243655    9.928850469510079    8.634740970323103    51.18600611003352    3.315487507304205    1.125534197034003    96.32533144671484   0.5371423842318315    1.748497322620038
       820                     0   -489.7166244196857     9.92898875890169    8.634781326266967    51.20634221864292    3.216172291073431    1.062415250402072    95.31616880123271    0.523358506123845    1.719826464379799
       830                     0   -489.7222001746752    9.929123238424854    8.634819487368436    51.22650849732578    3.119714172746624    1.001210737651336    94.32486599678121   0.5099712961852454    1.691928619073296
       840                     0   -489.7276326516645    9.929254022542869    8.634855516202501    51.24651022591827    3.026010298798994   0.9418572983891501    93.35082281710223   0.4969660407374334     1.66477717246462
       850                     0   -489.7329280512255    9.929381220667603    8.634889472725158    51.26635246559472    2.934962938729514   0.8842946862774984     92.3934659547326   0.4843287643100922     1.63834671897076
       860                     0   -489.7380922363263     9.92950493746115    8.634921414431481    51.28604007143558    2.846479152628616   0.8284655595295908    91.45224742226921   0.4720461816998949    1.612612984426946
       870                     0   -489.7431307545659    9.929625273114915    8.634951396501551    51.30557770409374    2.760470479486893   0.7743152776784152    90.52664308544364   0.4601056538377435    1.587552755044082
       880                     0   -489.7480488586418    9.929742323608068     8.63497947193521    51.32496984063736    2.676852659422412   0.7217917251025799    89.61615129700958   0.4484951471204575     1.56314381198235
       890                     0   -489.7528515252348    9.929856180947239    8.635005691676783    51.34422078463836    2.595545364641909   0.6708451447094694    88.72029163219493   0.4372031958752558    1.539364871025449
       900                     0   -489.7575434724426     9.92996693338899    8.635030104730538    51.36333467557007    2.516471963570726   0.6214279830570587    87.83860371149341   0.4262188676775764    1.516195526894151
       910                     0   -489.7621291758983    9.930074665646588     8.63505275826779    51.38231549757054    2.439559292881674   0.5734947530617379     86.9706461073913   0.4155317312658298    1.493616201785099
       920                     0   -489.7666128836918    9.930179459082344    8.635073697726314    51.40116708762341     2.36473745080534   0.5270019023100664       86.11599532232   0.4051318268223447    1.471608097764563
       930                     0   -489.7709986301868    9.930281391886744    8.635092966902704    51.41989314320261    2.291939606937015   0.4819076972259744    85.27424483906135   0.3950096384158073    1.450153152679504
       940                     0   -489.7752902488483    9.930380539245428    8.635110608038337    51.43849722942327    2.221101821481881   0.4381721086863066    84.44500423185897   0.3851560684176221    1.429233999288075
       950                     0   -489.7794913841452    9.930476973495001    8.635126661899392    51.45698278573754      2.1521628797912   0.3957567133576185    83.62789833586416   0.3755624137270495    1.408833927334037
       960                     0   -489.7836055026148    9.930570764268559    8.635141167851444       51.47535313221    2.085064140078574   0.3546245992153376     82.8225664717593   0.3662203436508165     1.38893684831984
       970                     0   -489.7876359031639    9.930661978631745     8.63515416392908    51.49361147540464    2.019749385939267   0.3147402752236079    82.02866171624318   0.3571218793086324    1.369527262758039
       980                     0   -489.7915857266488    9.930750681210025    8.635165686900883    51.51176091391251    1.956164698908385   0.2760695953171999     81.2458502227808   0.3482593744264015    1.350590229692898
       990                     0   -489.7954579648201    9.930836934307944    8.635175772330202    51.52980444354647    1.894258328095979   0.2385796787714412    80.47381058027948   0.3396254974225918    1.332111338315403
      1000                     0   -489.7992554686584    9.930920798020859    8.635184454631982    51.54774496222747    1.833980576988929   0.2022388427694106    79.71223321263138   0.3312132146737454    1.314076681500748
      1010                     0   -489.8029809561601    9.931002330339773    8.635191767126006    51.56558527458434    1.775283695501315   0.1670165358910583    78.96081981446216   0.3230157748691624    1.296472831115719
      1020                     0   -489.8066370196173    9.931081587249802    8.635197742086737    51.58332809628788     1.71812177548214   0.1328832780254397    78.21928281923842   0.3150266943758666     1.27928681496154
      1030                     0   -489.8102261324229    9.931158622822633    8.635202410790113    51.60097605813732    1.662450659595961  0.09981060465578546    77.48734489962762   0.3072397435323992     1.26250609522124
      1040                     0   -489.8137506554447    9.931233489303533    8.635205803557444    51.61853170991702    1.608227850729635  0.06777101299364338    76.76473849622352    0.299648933799034    1.246118548298734
      1050                     0   -489.8172128429956    9.931306237193203    8.635207949796643    51.63599752403856    1.555412426913058   0.0367379133561278     76.0512053731096   0.2922485057106776    1.230112445943189
      1060                     0   -489.8206148484282    9.931376915324869    8.635208878040981    51.65337589898321    1.503964968687462 0.006685584625577568    75.34649619756536   0.2850329175617645    1.214476437562216
      1070                     0   -489.8239587293896    9.931445570936962    8.635208615985558    51.67066916255796    1.453847479679933 -0.02241087193683622    74.65037014538554   0.2794819481155031    1.199199533633549
      1080                     0   -489.8272464527527    9.931512249741635    8.635207190521607    51.68787957497747    1.405023322140676 -0.05057556904314175    73.96259452559555    0.276196110311733    1.184271090137147
      1090                     0   -489.8304798992479    9.931576995989468    8.635204627768831     51.7050093317835    1.357457151693956 -0.07783187321478066     73.2829444258069   0.2729555046585105    1.169680793929235
      1100                     0   -489.8336608678192     9.93163985253055    8.635200953105873    51.72206056661206    1.311114855416541  -0.1042024403827475    72.61120237773132   0.2697592326887053     1.15541864899157
      1110                     0   -489.8367910797257    9.931700860872235    8.635196191199048    51.73903535381834    1.265963495204835  -0.1297092477802422     71.9471580394151   0.2666064210355053    1.141474963492441
      1120                     0   -489.8398721823964    9.931760061233733    8.635190366029471    51.75593571096844    1.221971254078747  -0.1543736229125045    71.29060789371728   0.2634962203033924    1.127840337600486
      1130                     0   -489.8429057530697    9.931817492597784    8.635183500918687      51.772763601206    1.179107386781588  -0.1782162787531475    70.64135496449859    0.260427804001618    1.114505651997911
      1140                     0   -489.8458933022176    9.931873192759596    8.635175618552839    51.78952093550168    1.137342170343654  -0.2012573321228099    69.99920854298145   0.2574003675342768    1.101462057044307
      1150                     0    -489.848836276777    9.931927198373204    8.635166741005598    51.80620957479286    1.096646860060169  -0.2235163378270728    69.36398393393763   0.2544131272410425    1.088700962542289
      1160                     0   -489.8517360632029    9.931979544995421     8.63515688975979    51.82283133202017    1.056993644169024  -0.2450123088237159    68.73550220836916   0.2514653194914284    1.076214028068335
      1170                     0   -489.8545939903453    9.932030267127516    8.635146085727882    51.83938797406653    1.018355610172141  -0.2657637368628856    68.11358997178867   0.2485561998236718    1.063993153823279
      1180                     0   -489.8574113321719    9.932079398254798     8.63513434927142    51.85588122360546   0.9807066993621902  -0.2857886181538491    67.49807914430646   0.2456850421281061     1.05203047197035
      1190                     0   -489.8601893103398    9.932126970884179    8.635121700219399    51.87231276086353   0.9440216761984599  -0.3051044704745835    66.88880674840814   0.2428511378755966    1.040318338426585
      1200                     0     -489.86292909663    9.932173016579883    8.635108157885709    51.88868422530184    0.908276091327536  -0.3237283540935619    66.28561470971883   0.2400537953815942    1.028849325075853
      1210                     0   -489.8656318152462    9.932217565997384    8.635093741085672    51.90499721722176   0.8734462511074413  -0.3416768855380957    65.68834966553426   0.2372923391108222     1.01761621237485
      1220                     0   -489.8682985449973    9.932260648915678    8.635078468151759    51.92125329929885   0.8395091869254904  -0.3589662623438702    65.09686278235472   0.2345661090153625    1.006611982327652
      1230                     0   -489.8709303213586     9.93230229426802    8.635062356948458    51.93745399804919   0.8064426253253755  -0.3756122695627397    64.51100958276048   0.2318744599069423   0.9958298117996847
      1240                     0   -489.8735281384331     9.93234253017115    8.635045424886467    51.95360080523224   0.7742249615847405  -0.3916303020132603    63.93064977871779   0.2292167608600191   0.9852630661538349
      1250                     0    -489.876092950799     9.93238138395316    8.635027688936121    51.96969517919346   0.7428352336624831  -0.4070353735775198    63.35564711342408    0.226592394646121   0.9749052931829891
      1260                     0   -489.8786256752754    9.932418882180036    8.635009165640211    51.98573854615012   0.7122530970092361  -0.4218421348589248    62.78586920973509   0.2240007571939726   0.9647502173217772
      1270                     0   -489.8811271925865    9.932455050680971    8.634989871126118    52.00173230142401   0.6824588016163166  -0.4360648818252422    62.22118742664016   0.2214412570783314   0.9547917341179658
      1280                     0   -489.8835983489503    9.932489914572502    8.634969821117414    52.01767781062305   0.6534331697758439  -0.4497175720252539    61.66147671885737   0.2189133150321556   0.9450239049493485
      1290                     0    -489.886039957579    9.932523498281542    8.634949030944856    52.03357641077545   0.6251575742212486  -0.4628138305846692     61.1066155060482   0.2164163634840717   0.9354409519658271
      1300                     0   -489.8884528001134    9.932555825567384    8.634927515556894    52.04942941141869   0.5976139187849895  -0.4753669668372924     60.5564855446468   0.2139498461161758   0.9260372532466637
      1310                     0    -489.890837627978    9.932586919542674    8.634905289529652    52.06523809564553   0.5707846190459495  -0.4873899814434761    60.01097180723217    0.211513217445282   0.9168073381576012
      1320                     0   -489.8931951636751    9.932616802693495    8.634882367076438    52.08100372111014   0.5446525846530166  -0.4988955746590171    59.46996236568207   0.2091059424218862   0.9077458828939519
      1330                     0   -489.8955261020145    9.932645496898536    8.634858762056826    52.09672752099574   0.5192011998764026  -0.5098961592892529    58.93334828101694   0.2067274960509519   0.8988477062005745
      1340                     0   -489.8978311112821    9.932673023447412    8.634834487985293     52.1124107049465   0.4944143088219616  -0.5204038662253405    58.40102349354616   0.2043773630277312   0.8901077652575211
      1350                     0   -489.9001108343497    9.932699403058219    8.634809558039464    52.12805445996468   0.4702762007086485  -0.5304305547522263    57.87288472177076   0.2020550373914943   0.8815211517194431
      1360                     0    -489.902365889743     9.93272465589428    8.634783985067967    52.14365995127621   0.4467715916953093  -0.5399878198916395    57.34883136464784   0.1997600221966552      0.8730830879017
      1370                     0   -489.9045968726439    9.932748801580228    8.634757781597921    52.15922832316537   0.4238856129585357  -0.5490869975510134    56.82876540529845   0.1974918291971471   0.8647889231034134
      1380                     0   -489.9068043558581    9.932771859217347    8.634730959842109    52.17476069978077   0.4016037964335424  -0.5577391775465682    56.31259132077503    0.195249978545618    0.856634130060452
      1390                     0    -489.908988890727    9.932793847398317    8.634703531705759    52.19025818591402   0.3799120614643881  -0.5659552034457564    55.80021599433973   0.1930339985077067   0.8486143015199766
      1400                     0   -489.9111510080073    9.932814784221298    8.634675508793077    52.20572186775254   0.3587967009652858  -0.5737456842934435    55.29154863124437    0.190843425187856   0.8407251469309955
      1410                     0   -489.9132912187044    9.932834687303428    8.634646902413433    52.22115281360822   0.3382443733822119   -0.581120998107266    54.78650067877513   0.1886778022664815   0.8329624892424141
      1420                     0   -489.9154100148651    9.932853573793794    8.634617723587281    52.23655207462302   0.3182420868759657  -0.5880912979943916    54.28498574652568   0.1865366807511795   0.8253222618062195
      1430                     0   -489.9175078703405    9.932871460385835    8.634587983051803    52.25192068545272   0.2987771895049589  -0.5946665194491246    53.78691953248204   0.1844196187365549   0.8178005053768639
      1440                     0   -489.9195852415113    9.932888363329226    8.634557691266288    52.26725966493055   0.2798373611515756  -0.6008563844767268    53.29221975247598   0.1823261811764633    0.810393365203089
      1450                     0   -489.9216425679789    9.932904298441308    8.634526858417239    52.28257001671154   0.2614106013856137  -0.6066704052607973    52.80080606732159   0.1802559396640471   0.8030970882093821
      1460                     0   -489.9236802732285    9.932919281118027    8.634495494423287    52.29785272989854   0.2434852196974061  -0.6121178935605538    52.31260001827295    0.178208472222625   0.7959080202599992
      1470                     0   -489.9256987652617    9.932933326344445    8.634463608939813    52.31310877965135    0.226049826573285  -0.6172079598072634     51.8275249609013   0.1761833631046656   0.7888226035026376
      1480                     0    -489.927698437202    9.932946448704797    8.634431211363395     52.3283391277801   0.2090933254664603  -0.6219495226976103    51.34550600409798   0.1741802026001272   0.7818373737885645
      1490                     0   -489.9296796678689    9.932958662392183       8.634398310836    52.34354472332345   0.1926049035579863   -0.626351309217946    50.86646994860023   0.1721985868512959   0.7749489581649143
      1500                     0   -489.9316428223362    9.932969981217816       8.634364916249    52.35872650311299    0.176574024855657  -0.6304218623076789    50.39034522948074   0.1702381176763905   0.7681540724371123
      1510                     0   -489.9335882524589    9.932980418619959    8.634331036246955    52.37388539232471   0.1609904190386003  -0.6341695416771967    49.91706185994397    0.168298402399449   0.7614495187966499
      1520                     0   -489.9355162973793    9.932989987672441    8.634296679231232    52.38902230501832   0.1458440783509044  -0.6376025319938404    49.44655137770181   0.1663790536873487   0.7548321835127355
      1530                     0   -489.9374272840111    9.932998701092867    8.634261853363411    52.40413814466563   0.1311252470657792  -0.6407288421001837    48.97874679201761   0.1652560601624778   0.7482990346858631
      1540                     0   -489.9393215275066    9.933006571250484    8.634226566568488    52.41923380466859   0.1168244171055462  -0.6435563096938597    48.51358253298933   0.1643451956527041   0.7418471200586743
      1550                     0   -489.9411993316996    9.933013610173735     8.63419082653796    52.43431016886796   0.1029323200883996  -0.6460926061709092    48.05099440251139   0.1634190311665824   0.7354735648849572
      1560                     0   -489.9430609895312    9.933019829557493    8.634154640732664    52.44936811204352  0.08943991902463798  -0.6483452391209568    47.59091952819612   0.1624780541437175   0.7291755698502711
      1570                     0   -489.9449067834602    9.933025240770004    8.634118016385493    52.46440850040664  0.07633840730034556  -0.6503215562013834    47.13329631548899   0.1615227390636984   0.7229504090484301
      1580                     0   -489.9467369858529    9.933029854859557    8.634080960503885    52.47943219208617  0.06361919718158292  -0.6520287452898987    46.67806440593874   0.1605535477807616   0.7167954280043143
      1590                     0   -489.9485518593611    9.933033682560859    8.634043479872227    52.49444003760827  0.05127391709183062  -0.6534738411215177    46.22516463120169   0.1595709298460302   0.7107080417499073
      1600                     0   -489.9503516572815    9.933036734301142    8.634005581054016    52.50943288037104  0.03929440642120557  -0.6546637261992203    45.77453897352272   0.1585753228155091   0.7046857329435947
      1610                     0   -489.9521366239019    9.933039020206039    8.633967270393885     52.5244115571149  0.02767270890626912  -0.6556051336310692    45.32613052558619   0.1575671525516878   0.6987260500367469
      1620                     0   -489.9539069948356    9.933040550105165    8.633928554019487     52.5393768983899  0.01640106776571942  -0.6563046494959869    44.87988344953405   0.1566394428070632   0.6928266054846135
      1630                     0   -489.9556629973371    9.933041333537496     8.63388943784318    52.55432972901998 0.005471922080524484  -0.6567687169573135    44.43574294030225   0.1559619763604474   0.6869850739990776
      1640                     0   -489.9574048506137    9.933041379756476    8.633849927563579    52.56927086856566 -0.005122100013282094  -0.6570036369158404    43.99365518962276    0.155278666750451   0.6811991908425609
      1650                     0   -489.9591327661148     9.93304069773491    8.633810028666931     52.5842011317861 -0.01538818407883332  -0.6570155708384009    43.55356734841398   0.1545894579559223   0.6754667501632444
      1660                     0   -489.9608469478229    9.933039296169635    8.633769746428325    52.59912132910082 -0.02533333469368096  -0.6568105430799605    43.11542749240792   0.1538942939419263    0.669785603367399
      1670                     0   -489.9625475925214    9.933037183485942    8.633729085912757    52.61403226705274 -0.03496438041921692  -0.6563944454127437    42.67918458989594   0.1531931186006231    0.664153657530044
      1680                     0   -489.9642348900582    9.933034367841797    8.633688051975998     52.6289347487733 -0.04428797497718126  -0.6557730341556803    42.24478846781631   0.1524858756926425   0.6585688738418987
      1690                     0   -489.9659090236013    9.933030857131875    8.633646649265323    52.64382957444998 -0.05331060534254546  -0.6549519359378458    41.81218977981089   0.1517725087892507   0.6530292660917099
      1700                     0   -489.9675701698826    9.933026658991309    8.633604882220068    52.65871754179817 -0.06203859208550767  -0.6539366509021758    41.38133997432318   0.1510529612131685   0.6475328991827135
      1710                     0   -489.9692184994306     9.93302178079931    8.633562755071981     52.6735994465376 -0.07047809596500185  -0.6527325516713898    40.95219126559486    0.150327175979903   0.6420778876814919
      1720                     0   -489.9708541768005    9.933016229682519    8.633520271845423    52.68847608287538 -0.07863511858939813   -0.651344886253499    40.52469660459111   0.1495950957387631   0.6366623943989536
      1730                     0   -489.9724773607933    9.933010012518199    8.633477436357376    52.70334824399596 -0.08651550825836543  -0.6497787796681179    40.09880964836484   0.1488566627138523   0.6312846290029038
      1740                     0   -489.9740882046659    9.933003135937165     8.63343425221727    52.71821672255943 -0.09412496157212838  -0.6480392364595554    39.67448473256756   0.1481118186424313    0.625942846659671
      1750                     0   -489.9756868563387    9.932995606326585    8.633390722826604    52.73308231120964  -0.1014690294090536  -0.6461311430611955    39.25167684446191    0.147360504714754   0.6206353467041228
      1760                     0   -489.9772734585925    9.932987429832485    8.633346851378363    52.74794580309344  -0.1085531155391098  -0.6440592675289851    38.83034159556643   0.1466026615109421   0.6153604713380094
      1770                     0   -489.9788481492599    9.932978612362133    8.633302640856234    52.76280799239228  -0.1153824850362119  -0.6418282620819348     38.4104351957206   0.1458382289374558   0.6101166043540929
      1780                     0   -489.9804110614155    9.932969159586131    8.633258094033607    52.77766967486792   -0.121962263079302  -0.6394426657276011     37.9919144258723   0.1450671461609992   0.6049021698862647
      1790                     0   -489.9819623235505    9.932959076940378    8.633213213472331    52.79253164842341  -0.1282974400508883  -0.6369069048927045    37.57473661470132   0.1442893515420742   0.5997156311833344
      1800                     0   -489.9835020597552    9.932948369627724     8.63316800152124    52.80739471368163  -0.1343928723655615  -0.6342252949359555    37.15885961132786   0.1435047825654441   0.5945554894065638
      1810                     0   -489.9850303898851    9.932937042619503    8.633122460314429    52.82225967458282  -0.1402532885017816  -0.6314020414067264    36.74424176228845   0.1427133757685057   0.5894202824479874
      1820                     0   -489.9865474297298    9.932925100656746    8.633076591769266    52.83712733900327  -0.1458832881453329  -0.6284412427026386    36.33084188737703   0.1419150666664548   0.5843085837701265
      1830                     0    -489.988053291175    9.932912548251229    8.633030397584122    52.85199851939732   -0.151287346644831   -0.625346890380735    35.91861925468726   0.1411097896758916   0.5792190012651699
      1840                     0    -489.989548082361    9.932899389686249    8.632983879235793    52.86687403346445  -0.1564698165958684  -0.6221228691381476     35.5075335570971   0.1402974780341382   0.5741501761318839
      1850                     0   -489.9910319078371    9.932885629017159    8.632937037976655    52.88175470484433  -0.1614349317837736  -0.6187729635836767    35.09754488963146   0.1394780637144832   0.5691007817687507
      1860                     0   -489.9925048687156    9.932871270071642    8.632889874831415    52.89664136384283  -0.1661868062541666  -0.6153008524935915    34.68861372426849   0.1386514773387724   0.5640695226833253
      1870                     0   -489.9939670628195    9.932856316449739    8.632842390593581    52.91153484819076  -0.1707294410456845  -0.6117101141812882    34.28070088874571   0.1378176480853331   0.5590551334140502
      1880                     0   -489.9954185848306    9.932840771523546    8.632794585821511    52.92643600383969  -0.1750667224598165  -0.6080042284742443    33.87376754204318   0.1369765035909318   0.5540563774647621
      1890                     0   -489.9968595264333    9.932824638436681    8.632746460834069    52.94134568579696  -0.1792024267551287  -0.6041865738063135    33.46777515038385   0.1361279698490394   0.5490720462500592
      1900                     0   -489.9982899764559    9.932807920103397    8.632698015705865    52.95626475900468   -0.183140221602695  -0.6002604327018347    33.06268546580996   0.1352719711012117   0.5441009580475495
      1910                     0    -489.999710021019    9.932790619207355    8.632649250262022    52.97119409926571  -0.1868836654224864  -0.5962289910993399    32.65846050000179   0.1344084297224997   0.5391419569589352
      1920                     0   -490.0011197436662    9.932772738200114    8.632600164072441    52.98613459422201  -0.1904362140876186  -0.5920953380754843    32.25506250436869   0.1335372660993687   0.5341939118726924
      1930                     0   -490.0025192255114    9.932754279299198    8.632550756445562    53.00108714438867  -0.1938012198522089  -0.5878624698681564    31.85245394038295   0.1326583985024347   0.5292557154327392
      1940                     0   -490.0039085453772    9.932735244485782    8.632501026421499    53.01605266425053  -0.1969819342235991  -0.5835332874126252    31.45059746035577   0.1317717429473337   0.5243262830033175
      1950                     0   -490.0052877799303    9.932715635501955    8.632450972764628     53.0310320834255  -0.1999815071128637   -0.579110600860674     31.0494558796763   0.1308772130487417   0.5194045516333783
      1960                     0    -490.006657003828    9.932695453847577     8.63240059395544    53.04602634790189  -0.2028029938856736  -0.5745971279541313     30.6489921519508   0.1299747198641697   0.5144894790152005
      1970                     0   -490.0080162898534    9.932674700776591      8.6323498881817    53.06103642135618  -0.2054493511749872  -0.5699954957250198    30.24916934149415   0.1290641717281948   0.5095800424341587
      1980                     0   -490.0093657090634    9.932653377292853    8.632298853328814    53.07606328655869  -0.2079234435315775  -0.5653082405736767    29.84995059807501   0.1281454740712901   0.5046752377062274
      1990                     0   -490.0107053309283    9.932631484145402    8.632247486969346    53.09110794687587  -0.2102280398455529  -0.5605378103056501    29.45129912752688   0.1272185292292949   0.4997740781011515
      2000                     0   -490.0120352234829    9.932609021823124    8.632195786351605    53.10617142787823  -0.2123658203350999  -0.5556865648629399    29.05317816327101   0.1262832362367104   0.4948755932445367
      2010                     0   -490.0133554534758    9.932585990548738    8.632143748387197    53.12125477906434  -0.2143393737281774  -0.5507567757771283    28.65555093506796   0.1253394906062455   0.4899788279976402
      2020                     0   -490.0146660865195    9.932562390272098    8.632091369637497    53.13635907571184  -0.2161512014867798   -0.545750626089032    28.25838063803056   0.1243871840884651   0.4850828413073967
      2030                     0    -490.015967187256    9.932538220662691    8.632038646298906    53.15148542086847  -0.2178037173815728  -0.5406702133554734    27.86163039935996   0.1234262044157205   0.4801867050226857
      2040                     0   -490.0172588195115    9.932513481101312    8.631985574186777    53.16663494749744  -0.2192992483629094  -0.5355175498723512    27.46526324129124   0.1224564350231107   0.4752895026708442
      2050                     0   -490.0185410464748    9.932488170670791    8.631932148717862     53.1818088207918  -0.2206400386532573  -0.5302945592054749    27.06924204629658   0.1214777547482295   0.4703903281869974
      2060                     0   -490.0198139308651    9.932462288145688    8.631878364891216    53.19700824067682  -0.2218282463262399  -0.5250030809606744    26.67352951544675   0.1204900375056145   0.4654882845894986
      2070                     0   -490.0210775351217    9.932435831980921    8.631824217267296    53.21223444451847  -0.2228659504881342  -0.5196448701562836    26.27808812716181   0.1194931519330693   0.4605824825934462
      2080                     0   -490.0223319215933     9.93240880029907    8.631769699945103    53.22748871006145  -0.2237551442918542  -0.5142215937636074    25.88288009180516   0.1184869610081442   0.4556720391526454
      2090                     0    -490.023577152744     9.93238119087645    8.631714806537241    53.24277235862073   -0.224497745996761  -0.5087348355265153    25.48786730380311   0.1174713216297322   0.4507560759184639
      2100                     0   -490.0248132913658    9.932353001127503    8.631659530142519    53.25808675855439  -0.2250955893518932  -0.5031860929477467    25.09301128676242   0.1164460841645789   0.4458337176071906
      2110                     0   -490.0260404008051    9.932324228087673    8.631603863315982    53.27343332905041  -0.2255504306560445  -0.4975767777344778    24.69827314114151   0.1154110919500247   0.4409040902578197
      2120                     0   -490.0272585452071    9.932294868394353    8.631547798035943    53.28881354426201  -0.2258639488779122  -0.4919082135102367    24.30361347968481   0.1143661807520456   0.4359663193697056
      2130                     0   -490.0284677897728    9.932264918265748    8.631491325667801    53.30422893783298  -0.2260377441255574  -0.4861816386902525    23.90899236289377   0.1133111781701104   0.4310195279004053
      2140                     0   -490.0296682010372    9.932234373477465    8.631434436924206    53.31968110785839  -0.2260733406380077  -0.4803982065552596    23.51436922643171   0.1122459029866782   0.4260628341040485
      2150                     0   -490.0308598471642    9.932203229336469    8.631377121821039    53.33517172233444  -0.2259721832106578  -0.4745589741075512     23.1197028000483   0.1111701644509119   0.4210953491906435
      2160                     0   -490.0320427982762    9.932171480652187    8.631319369628976    53.35070252515654  -0.2257356415059309  -0.4686649153459033    22.72495102329404   0.1100837614911515   0.4161161747758131
      2170                     0   -490.0332171267948     9.93213912170429    8.631261168819757     53.3662753427361  -0.2253650090515612  -0.4627169105521989    22.33007094838902   0.1089864818448191   0.4111244000977097
      2180                     0   -490.0343829078263    9.932106146206822    8.631202507006694    53.38189209131408  -0.2248615017823505  -0.4567157451128644    21.93501863444221   0.1078781010997044    0.406119098961393
      2190                     0    -490.035540219576    9.932072547268119    8.631143370878622    53.39755478506493  -0.2242262567406401  -0.4506621097516271    21.53974903246348    0.106758381628293   0.4010993263752136
      2200                     0   -490.0366891438002     9.93203831734605    8.631083746126402    53.41326554509589  -0.2234603359258096  -0.4445565977443012    21.14421585440613   0.1056270714085667   0.3960641148312046
      2210                     0   -490.0378297663087    9.932003448197817    8.631023617360931    53.42902660946525  -0.2225647203475063  -0.4383996990623972    20.74837142909418   0.1044839027097874   0.3910124701788519
      2220                     0   -490.0389621775162    9.931967930823618    8.630962968021537    53.44484034436496  -0.2215403103592299  -0.4321917997950085    20.35216654193933   0.1033285906285255   0.3859433670271103
      2230                     0   -490.0400864730505    9.931931755403333    8.630901780273337    53.46070925663346   -0.220387927805783  -0.4259331741976157    19.95555025558318   0.1021608314496654   0.3808557436037546
      2240                     0   -490.0412027544336    9.931894911224925    8.630840034891804    53.47663600779989   -0.219108296172971  -0.4196239649524033    19.55846970693351   0.1009803008107043   0.3757484959859279
      2250                     0   -490.0423111298375    9.931857386602823    8.630777711131662    53.49262342988939  -0.2177019273916715  -0.4132639916076111    19.16086988448265   0.0997866516372275   0.3706204716009317
      2260                     0   -490.0434117149348    9.931819168772037    8.630714786560201    53.50867454326512  -0.2161672514857532  -0.4068497548413514    18.76269345845339  0.09857951181290481   0.3654704618885162
      2270                     0   -490.0445046338494     9.93178024344213    8.630651236417158    53.52479257676475  -0.2144560296087436  -0.4003034884253689    18.36388254221735  0.09735848150850185   0.3602971942991984
      2280                     0   -490.0455900202584    9.931740582454619    8.630587016513132    53.54098098795906  -0.2108801959469913  -0.3909418445888024    17.96445177843838  0.09612312889914643   0.3550993352180693
      2290                     0   -490.0466680198676    9.931699476274867    8.630521140474908    53.55724334116027  -0.1151621297386318  -0.2354424686788196    17.56849689021816  0.09487291901429912   0.3498761662836795
      2300                     0   -490.0477385880483    9.931600565381258    8.630375735243298    53.57357111766245    7.411116872547162    11.70999682769607    17.51453545101025   0.0936018708790432   0.3446908905827249
      2310                     0   -490.0488008218973    9.931475828646404    8.630195079714751    53.58997475577185    18.19570317989969    28.80982871217957    17.61057424287467  0.09231337381609617   0.3395288824405727
      2320                     0   -490.0498574065717    9.931431897470071    8.630126363138865    53.60648297618434    18.35082943140289    29.04700471403416    17.21529597513914  0.09101652369525304   0.3342223738651143
      2330                     0   -490.0509072059849    9.931383762658781    8.630052152253365    53.62308233411527    18.94612119973227    29.98261808617561    16.83936591261187  0.08970237850017293   0.3288887351939979
      2340                     0   -490.0519505276723    9.931335164137721    8.629977611293517    53.63977918997767    19.49111790133784    30.83785050201464    16.46000832057216  0.08837058462068637   0.3235199952702378
      2350                     0   -490.0529876122983    9.931285990359212    8.629902579238541    53.65657956184869    19.99656340642254    31.62961419700872    16.07761164698124  0.08702036351270115   0.3181140079605596
      2360                     0   -490.0540187267193    9.931236165910125    8.629826943347382    53.67349006324186    20.46808416276011    32.36684462620285     15.6923249976321  0.08565086397654337   0.3126683474297957
      2370                     0   -490.0550441675773    9.931185638547563    8.629750622013432    53.69051798710291    20.90781988865733    33.05297087084959    15.30412800316408  0.08426114952414243   0.3071802860433518
      2380                     0   -490.0560642652123    9.931134355416198    8.629673531994623    53.70767140290707    21.31744801939183    33.69068959284339    14.91296848812302  0.08285018332181104   0.3016467877402093
      2390                     0   -490.0570793889457    9.931082260773339    8.629595585185271    53.72495927852428    21.69839536559792    34.28229796730444     14.5187702624899  0.08141681241665855   0.2960644576857976
      2400                     0   -490.0580899534788    9.931029295416021    8.629516687695219    53.74239162766172    22.05181098427975    34.82965100210255    14.12142956837393  0.07995974889804491   0.2904294776458356
      2410                     0   -490.0590964266163    9.930975395363134    8.629436737873984    53.75997968900953    22.37861367278102    35.33423724649956    13.72081455358533  0.07847754699001991   0.2847375282745027
      2420                     0   -490.0600993387031    9.930920490546619     8.62935562431546     53.7777361460539    22.67950989927346    35.79720765300168    13.31676278060941  0.07696857503039523   0.2789836929497073
      2430                     0    -490.061099294249    9.930864503275599     8.62927322350928    53.79567539927546    22.95500462622174    36.21939314542751    12.90907763367824  0.07543116879678258   0.2731623381636557
      2440                     0   -490.0620969863984      9.9308073463858    8.629189397006321    53.81381390668403    23.20540521556094    36.60131126333113    12.49752338059527  0.07386338205713772   0.2672669632832682
      2450                     0   -490.0630932151395    9.930748920968064    8.629103987937199    53.83217061466809    23.43081677837722    36.94315920788684    12.08181848127765  0.07226242786658599   0.2612900097464159
      2460                     0   -490.0640889104976    9.930689113517014    8.629016816642322     53.8507675099227    23.63112798004208    37.24479190570855    11.66162662373053   0.0706254841680537   0.2552226158040515
      2470                     0   -490.0650851624857    9.930627792288151    8.628927675092537    53.86963033630644    23.80598393397587    37.50567966503975    11.23654466178232  0.06894925029030285   0.2490542969638128
      2480                     0   -490.0660832603552    9.930564802500944    8.628836319557463    53.88878954035903    23.95474831315352    37.72484892492661    10.80608657411873  0.06722982778202324   0.2427725234043559
      2490                     0   -490.0670847448725     9.93049995876267    8.628742459227361    53.90828153996702    24.07659826614588    37.90103217278643    10.36966876036563  0.06546256075796064   0.2363621541668602
      2500                     0   -490.0679105519288    9.930320214757797    8.628491935652386     53.9246280071869    40.27528162744408    63.39230504513861    10.76393490801627   0.0639642464018102   0.2312923319866061
      2510                     0   -490.0685861133223    9.930929866612825    8.629324609818859    53.93825566821828   -44.40473356077322   -69.95965425241116    6.471375794617511  0.06270894402191757   0.2259872179546393
      2520                     0   -490.0692551921948    9.930269381795874     8.62841430932486    53.95145344696353    35.08461491684857    55.38364791009348    9.925866430565002  0.06147742220710495   0.2222850225026597
      2530                     0    -490.069922266894    9.930821535774593    8.629173176087999    53.96519682405845   -42.34750846074267   -67.40018882267799    5.930944132471767  0.06017501054260982   0.2171300018650938
      2540                     0   -490.0707778614697    9.930827187523613    8.629107192674962     53.9827357792297   -50.71245006995582   -70.75107996784192    5.348695560989555   0.0585220994252878   0.2111560283550671
      2550                     0   -490.0715056464562    9.929946682689794    8.628115931780089    53.99768806067497    55.32133223296297    65.72211515083879    9.504621722396298   0.0571172873809227   0.2074682014175986
      2560                     0   -490.0722816906614    9.930549685656256      8.6281074960112    54.01373717712955   -27.11412290268182     51.5799233750358     7.35774949342202  0.05554284703062023   0.2013501640324841
      2570                     0   -490.0730157959167    9.930456766644726    8.628137453336025    54.02961108526564   -23.29371738295368    33.72121162639611    6.560461093332654  0.05389116982491554   0.1977140200608609
      2580                     0   -490.0737260332886    9.929749767193382    8.628737036828985    54.04452130763718    55.48688975460002   -59.96170310122905     6.16564608217266  0.05253579071094167   0.1916402759890089
      2590                     0   -490.0743182074588    9.930359048609672    8.628052824979422    54.05704476125302   -23.98024897193818    25.72796414653835    5.975753331904557  0.05125568226499705   0.1863093105318056
      2600                     0   -490.0747939455681    9.929597821688489    8.628667718102342    54.06759209531339     63.2867925252514    -67.7928702817205    5.692985855239618  0.05023756648741634    0.184271609424754
      2610                     0    -490.075459849312    9.930505793574369    8.627695410462824    54.08193183981169   -53.28873900069693    56.47222128817426    5.517886624678139  0.04875730901354408   0.1784985406863271
      2620                     0   -490.0758893656738    9.929393514667717    8.628633969740964    54.09162363711359    76.65956780412606   -81.93991839223334     5.18245196035193  0.04779625444654906   0.1768356922209286
      2630                     0    -490.076504787946    9.930403241148076    8.627572357400252    54.10488200856615   -51.83886235482531    55.16051171720324    5.039225495784483   0.0463932627533834   0.1704275560343168
      2640                     0   -490.0769403002021    9.929522744169018    8.628302670094978    54.11461615766144    49.87389178162168   -54.08995790486122    4.778128064670722  0.04543440487577088   0.1675792426867371
      2650                     0   -490.0777187536441    9.929596666299751     8.62804391840911    54.13186117165705    32.44264617257374   -32.11810103174683    4.543643919312412  0.04363038397409202   0.1607560006716784
      2660                     0   -490.0782960120651    9.929460174797173    8.628030589816346    54.14493212955563    42.33062993564945   -41.33835196070686    4.300663616102275  0.04224017909524863   0.1565017297920276
      2670                     0   -490.0788285355824    9.929516713477698    8.627850035719158    54.15684496935837    29.20500109869462   -28.39440791105276    3.803907617760713  0.04081400463859847   0.1506931857063773
      2680                     0   -490.0792102678428    9.930768908990323    8.626668565434789    54.16622942043894    -126.958296986406    130.1248375169273     4.03997354592932  0.03996698230903467    0.152552401810799
      2690                     0   -490.0798538977203    9.929108741129767     8.62799959383104    54.18031822436699    65.97302308645378    -69.3450397789918      3.4191187219924  0.03831647863776166    0.143047665153096
      2700                     0    -490.080399478148    9.929469841764588    8.627502014361543    54.19297188813231    15.42214434764959   -13.15474856265185    3.074243480474737  0.03678172607308128   0.1381738906174493
      2710                     0   -490.0809615197248    9.929811062142667    8.627080452511651      54.205714654432   -32.90079106148815    34.83151593735601    3.060995251511206   0.0354560128294672   0.1318244601707513
      2720                     0   -490.0815217458781    9.929665091612577    8.627073322663117    54.21870847671526   -22.75108693079455    23.56689794422391    2.867732468250928  0.03400015223155714   0.1259558629469502
      2730                     0   -490.0822792692181     9.92930031924176    8.627201275819303    54.23674121597229    10.57110259951311   -11.99555122281955    2.548650487349214  0.03192889476271252   0.1186922561756548
      2740                     0   -490.0827072578343    9.929446594014479    8.626899359452359    54.24740096692783   -13.64389414442668    17.06401968912142    2.156285688551187  0.03049134432470671   0.1172359820121715
      2750                     0   -490.0831419601557    9.929708980498273    8.626584423214775    54.25741716218903    -51.6195221935876    52.34603613697964    2.307444220791147  0.02947886100764066   0.1106136433625004
      2760                     0   -490.0834678266109    9.928259707697991    8.627752023440236    54.26600679310164    117.5330715790687   -120.7307401623192    1.825687593779746  0.02830374862998448     0.11217770836312
      2770                     0   -490.0837136365511     9.92932210915572    8.626718823897187    54.27142094528867   -14.13334597471484    16.72329831581854    1.840994684695552  0.02761797024736636   0.1048560383481531
      2780                     0   -490.0839569611233    9.929834461634574    8.626211593455032    54.27747637911874   -79.96443935130482    82.11441029902279     2.03425541188263  0.02702111029321667   0.1036560868416188
      2790                     0   -490.0842314482599    9.929023146027166    8.626851746260797    54.28393814766006    13.37278918635888   -14.57392908800829     1.79776733535712   0.0261836534855925  0.09740104992606788
      2800                     0   -490.0845701426544     9.92879948345065    8.626888639578832    54.29288728419274    34.05245128467887    -31.9815204535224    1.387677492997948  0.02486991378827777  0.09583480283702099
      2810                     0   -490.0848990342722    9.929821064028845    8.625885064029456    54.30158751944103   -95.32230737326728    98.86974401516025    1.609671831279156  0.02391974991384693   0.0957799800833615
      2820                     0    -490.085153210302    9.928675195154485    8.626844604348943     54.3077414572012    38.12884380528434   -41.13651372799053    1.505494190683392  0.02319702201571239  0.08893588949912959
      2830                     0   -490.0853677392121    9.928536567738123    8.626857476949031    54.31325519693986    50.65285998300947   -51.18754032109211    1.207332295563279  0.02233014880272987  0.08398816237358585
      2840                     0   -490.0856671158815    9.928980401451451    8.626345587805964    54.32121446238072   -8.970320719997527    10.33924384724049    1.200005761944529  0.02131325465568789  0.07914653290129832
      2850                     0   -490.0858806329714    9.929006748756168    8.626260680432084     54.3270621717824   -16.81335484363716    16.02169748600796     1.31151444182808  0.02066289497322569  0.07640066041009161
      2860                     0   -490.0860145949871      9.9282228704045    8.626887894291494    54.33119751909516    74.20153474234951   -77.19656868052884    1.051583815617187  0.02002408986333892  0.07805217200192859
      2870                     0   -490.0861501196669    9.928710972333615     8.62636281704301    54.33493683462934      12.373792018862   -10.27334515041657   0.9011371737473068  0.01940225198049917  0.07405930257917495
      2880                     0   -490.0862867436303    9.928739600953037    8.626311697774655    54.33851063833438    5.901337132353694   -6.401496169103882    1.067094733869508  0.01906123357493663  0.06930039500018284
      2890                     0   -490.0865231801331      9.9291933654752    8.625796974549344    54.34573124348418   -54.88973804317763    56.01975771722433    1.103282487580252  0.01811993246863098  0.06785178958735164
      2900                     0    -490.086643101222    9.928626191991656    8.626255316739559    54.34933602702488    10.20665972448729   -12.18497695009651    1.030343649871485  0.01764461100134767  0.06542829712215252
      2910                     0   -490.0867521066594    9.928222178551218    8.626533902145045    54.35280555468955    55.76680225802824   -56.84046809618486   0.7499573154520869   0.0170231630334129  0.06372429514432387
      2920                     0   -490.0868521795329     9.92881605495686    8.625947808479202    54.35591341948845   -18.49405659655834    20.40748031327115   0.7969313137259232   0.0165979266905609  0.06141175212822972
      2930                     0   -490.0869594446291    9.928885824663977    8.625855317381314    54.35928426098499   -29.99632595701123    29.91067028345227   0.9506830691899282   0.0162527436190428  0.05895385132359108
      2940                     0   -490.0870501576597    9.928433535391003    8.626207387759763    54.36232312217732    21.60871883249925    -23.3264866434987   0.8324394154163688  0.01579794744263871  0.05763331480777912
      2950                     0   -490.0871363051273    9.928377435055545    8.626185853825106     54.3652277064061    25.65670199023251   -25.35941872275671   0.6400502251981415   0.0152746782422576  0.05517253255478961
      2960                     0   -490.0872128936312    9.928858975542674    8.625716464810523    54.36793465099324   -34.85582990943303    36.60304270982898   0.7475109705298569  0.01494543484927999  0.05483865514895862
      2970                     0   -490.0872868027666    9.928711532579797    8.625828673673805    54.37052926820095   -19.64278829694587    18.55374905303744   0.8688061727591156  0.01468889956334433  0.05349282980142005
      2980                     0   -490.0873521667383    9.928122048948428    8.626295207924315    54.37295899907728    48.92898949884444   -50.60712686557882   0.6175442671465847  0.01422334353461822  0.05264734998957729
      2990                     0   -490.0874135433845    9.928475526079126    8.625922259596955    54.37520746961778    4.223459135014485   -2.656716004623081   0.5321900219757593  0.01382551804074252   0.0506320044809258
      3000                     0   -490.0874734627855    9.928865088090264    8.625563267158249    54.37740265534957    -44.8495934313892     45.5423322652841   0.7712429641350231   0.0136602052853545  0.04961161943770415
      3010                     0   -490.0875274560742    9.928385696443801    8.625961060317817    54.37945340275842    10.75038828687289   -12.43387558222972   0.7080268242522062  0.01336665089732295  0.04820206830699923
      3020                     0   -490.0875834827376    9.928215138157011    8.626052337159406     54.3816054229271    29.11914933921151   -29.22032129143658   0.4971198802635661  0.01292905605767233  0.04574440656015229
      3030                     0   -490.0876341235636    9.928580789523227     8.62569221215049    54.38362796568383   -16.92573141427312      18.183971689627   0.5585949556548235  0.01266015093609887  0.04472293497824291
      3040                     0   -490.0876850505767    9.928588077602312     8.62566729145149    54.38567958433107   -19.94189041632551    19.62703446646038   0.6697001456201247  0.01244820100410193  0.04341508547237787
      3050                     0   -490.0877306213835    9.928208674360835    8.625966841616574    54.38763678675637    23.65706911198812   -25.00042550118804   0.5573430024692553  0.01211892629083934  0.04274153680915178
      3060                     0   -490.0877751498647    9.928254757750402    8.625873702465332    54.38955274976281    16.13124884491289   -15.54598738847026   0.4235935252360608  0.01174700281366214  0.04104599064606237
      3070                     0   -490.0878148944865    9.928661536216131    8.625489983299786    54.39133537254479   -34.68889687963463     35.8995524039521   0.5612387422621052  0.01155809802512273  0.04103930412230379
      3080                     0   -490.0879580534212    9.928022035807624    8.625952973689039    54.39853304060668    34.45764014735971   -37.61047752202206   0.5454082288613077  0.01055626699389096  0.04298007971153953
      3090                     0   -490.0880161865405    9.928054867414225    8.625848934339896    54.40091062383561    27.96182933793913   -27.90692824738317    0.315203277836592  0.01004089047225934  0.03478308535967874
      3100                     0   -490.0880466719325    9.928419740019944    8.625500284112444    54.40242929605652   -17.61122661441098    18.71242358575059   0.4019443238346267 0.009850275937625344  0.03372380697816067
      3110                     0   -490.0880751676083    9.928380326559179    8.625523403179645    54.40387952751718   -14.53274076216562    14.16228013286276   0.4910240634815229 0.009699685262818711  0.03251880144619745
      3120                     0   -490.0880996100846    9.928078179746729    8.625762812229118    54.40522065594381    20.27885865206246    -21.2630312296366   0.3907055465798055 0.009448959908498256  0.03198723884138178
      3130                     0   -490.0881233764266    9.928150021052751    8.625661896904093    54.40652738770814    10.17055913925638   -9.634189644199587   0.3011652774160209 0.009183135271676773  0.03076515975807529
      3140                     0   -490.0881450832981    9.928442694839445    8.625387876375253    54.40776379227174     -26.453854382092    27.24163910279642   0.4152365134116139 0.009055843368590583  0.03069741799318589
      3150                     0   -490.0881657407252      9.9282331229759    8.625562917827173    54.40894523719649   -2.645694659107553    1.725281611801844   0.4446183142462622 0.008912108981887018  0.02999812806202488
      3160                     0   -490.0881861039954    9.927986839814411     8.62574570672918    54.41014182451963    25.59289975563648   -26.04265265951709   0.2875003603889119 0.008635084647613589  0.02895212886086942
      3170                     0   -490.0882049149956    9.928235247549015    8.625499923255664    54.41125905282416   -5.570928293427952    6.443847719578885   0.2968375701806568 0.008452556985841686  0.02810235008926185
      3180                     0   -490.0882245386063    9.928321551919677     8.62541454717844    54.41242725959003   -17.34727658214141    17.34092404395305   0.4020725905627978 0.008341220004525168  0.02726550628351724
      3190                     0   -490.0882424046151    9.928087441643441    8.625601461296206    54.41355321855168     9.45984067965786   -10.24549967281511   0.3488850900351901 0.008145557227069888   0.0266212292397906
      3200                     0    -490.088260480583    9.928054368670763    8.625598915560635    54.41470725353244    12.07728845691616   -11.96585685748143    0.258691500383792 0.007904030080603586   0.0254873598355959
      3210                     0   -490.0882768106378    9.928254727945466    8.625402062375308    54.41579861078856   -13.32076752664272    14.02801818885402   0.3022205494281578 0.007750149845286436  0.02522383235529538
      3220                     0   -490.0882928236624    9.928216274577219     8.62542670317443    54.41687015384576   -10.01362900314599    9.629874521890166   0.3662501325542601 0.007630044682273407  0.02462894268250118
      3230                     0   -490.0883070156978    9.927955406690957    8.625634141515762    54.41788592479715     20.1180919846108   -20.89072168889611   0.2710389085628765 0.007419936172878783  0.02441479368875934
      3240                     0   -490.0883206460475    9.928072203575089    8.625502106288955    54.41884973050956    4.920353308479245   -4.297943713926338   0.2121917227178432 0.007216784059174197  0.02353030637083022
      3250                     0    -490.088333537888    9.928287757939362    8.625303671038564    54.41977025763153   -22.14112109820364    22.57583308354725   0.3253646676871439 0.007135542700941883  0.02328743680836616
      3260                     0   -490.0883453686947    9.928072745111939    8.625483673205375    54.42063348422067    2.624782949194754   -3.410915578790472   0.3181018898667468 0.007007029663194608  0.02269493309747827
      3270                     0   -490.0883877115986    9.927874290787976    8.625564077763315    54.42433073527721    21.91500105539452   -20.80498519588092  0.07040882667161096 0.006245290142311372  0.02423751112972021
      3280                     0   -490.0884228201739    9.928186065986266     8.62525829329814    54.42690555495275   -18.84692124343879    19.20027441337135    0.257743687266604 0.005939852989252675  0.01890661866761175
      3290                     0   -490.0884383489127     9.92801162355696    8.625390092957865      54.428255697323   0.3632526402536396  -0.8127676359573751   0.2389258672313166 0.005711817360807364  0.01753581500989248
      3300                     0   -490.0884489465246    9.927915085893192    8.625450684096922    54.42923739326598    10.68951313166921   -10.84588388069528    0.167024608169742 0.005501007273064407  0.01675366534149623
      3310                     0   -490.0884573652016    9.928015507501824    8.625344512615461    54.43003821810526   -2.431249790892826     2.79956775300754   0.1700046708249246 0.005359480767349878  0.01623832135547807
      3320                     0   -490.0884651659792    9.928056566441676    8.625299190331257    54.43079290401988   -8.381818496249615    8.386433083044373   0.2158898120756829 0.005260305317061981  0.01580777481827197
      3330                     0   -490.0884721418856    9.927941855140894    8.625387888717414    54.43149819124373     4.46014242845782   -4.867955556699731   0.1937251096773898 0.005130267397191302  0.01547113614207278
      3340                     0   -490.0884789227802    9.927910876889687    8.625396268244154    54.43219450702505    7.258134091074325   -7.215047320978917   0.1409289384392544 0.004973750926449111  0.01488534360704489
      3350                     0   -490.0884849765311    9.928027871866773    8.625280247226609    54.43284318514527   -7.679138946691242    8.108177312459407   0.1628064957952609 0.004868087994702452  0.01476532412661008
      3360                     0   -490.0884908365822    9.928010981419504    8.625289697712779     54.4334685978584    -6.51473705089924    6.290068912948438   0.2057720608642713 0.004790176121925116  0.01442127462257562
      3370                     0   -490.0884959325509    9.927847148861053    8.625420779324994    54.43405144676159    12.38216084819251   -12.86049760650564   0.1483614296798162 0.004656991763529045  0.01436139951412187
      3380                     0   -490.0885008089452    9.927917035850383    8.625341684100029    54.43459878154116    3.245639713634763    -2.86443250458196   0.1101217665883744 0.004527581731863795  0.01382984554965755
      3390                     0   -490.0885053711747    9.928051086017609    8.625218944652714    54.43511421504773   -13.58881371421628    13.85471913208186   0.1806417840014541 0.004477021723804597  0.01368547674639176
      3400                     0    -490.088509536455    9.927920107455547    8.625329130055835    54.43559402548117    1.476602441574552   -1.948657836457958   0.1778699784022161 0.004397657419619061  0.01332824994571389
      3410                     0   -490.0885138289482    9.927844567441156    8.625379577815741    54.43609531372138    9.869460552067626   -9.941522008803549    0.109137829893152 0.004262869125789687  0.01272277370818057
      3420                     0   -490.0885177212518    9.927954815728045    8.625272155550016    54.43656202806654   -4.031661232107777    4.391487783956713   0.1244024105154547  0.00418170617913205  0.01241192462286128
      3430                     0   -490.0885217263015    9.927967227270898    8.625256821419439    54.43704487312123   -6.215033929686302    6.150767975924608   0.1632545232380357  0.00412064188241551  0.01203731143966731
      3440                     0   -490.0885253493068    9.927865696649194    8.625337282006273     54.4375088858921    5.329044356768091   -5.670568722516548   0.1372867616620054 0.004023608094540554  0.01184325239334185
      3450                     0   -490.0885289471504    9.927862914713424    8.625325920584812    54.43797240838788    5.014225488698941   -4.906220438776978  0.09847723727160043 0.003910348334370123  0.01141431242417314
      3460                     0    -490.088544313705    9.927893746810692    8.625248615962033    54.44024513970098   -1.936812215907172    2.709899358198946  0.05325915863298117 0.003453377344077857  0.01202016476380703
      3470                     0   -490.0885670760426    9.928008536651573    8.625078363080478    54.44395646802186   -21.23816711193383    22.01386069143439   0.1071163068272787 0.002765794728911919  0.01088992096596841
      3480                     0   -490.0885736875119    9.927860213604649    8.625194560750545    54.44496643818803   -5.011580246553878    4.789598190045116   0.1577615402230239 0.002570895686687391 0.007681867910792492
      3490                     0   -490.0885754211243    9.927749067553632    8.625283034607996    54.44533234758514    7.829822769881894   -8.094458984105659  0.02533554552443864 0.002475901985022372 0.007318338849075572
      3500                     0   -490.0885768774867    9.927799888831123    8.625229393142765     54.4455741632213    1.299039471020998   -1.097907196438911  0.06565497439967935 0.002403819840392729 0.006880024224037377
[...]
Histogram: 1 0 0 0 0 0 0 0 0 0
FullNghs:         1446 ave        1446 max        1446 min
Histogram: 1 0 0 0 0 0 0 0 0 0

Total # of neighbors = 1446
Ave neighs/atom = 23.322581
Neighbor list builds = 0
Dangerous builds = 0

# Minimize the with fire
  unfix           frb
  min_style       fire
  minimize        0.0 1.0e-3 10000 10000
  Parameters for fire:
    dmax  delaystep dtgrow dtshrink alpha0 alphashrink tmax tmin   integrator   halfstepback   abcfire  
     0.1     20      1.1     0.5     0.25     0.99      10  0.02 eulerimplicit      yes          no     
Per MPI rank memory allocation (min/avg/max) = 3.08 | 3.08 | 3.08 Mbytes
   Step          Temp          PotEng           Lx             Ly             Lz            Pxx            Pyy            Pzz            Fmax          Fnorm     
      4233                     0   -490.0886048542718    9.927671622419036    8.625143307358393    54.45414696777878 -0.01029168095940474 -0.01533842954553615 -0.0004538553711546761 4.276027116663361e-05 0.0001271763042640551
      4234  8.238916241140479e-10   -490.0886048542846    9.927671622419036    8.625143307358393    54.45414696777878  -0.0102206882652196 -0.01527535365696942 -0.0004235870943905164 4.273615782063311e-05 0.0001270267049039264
Loop time of 0.000454092 on 1 procs for 1 steps with 62 atoms

21.1% CPU use with 1 MPI tasks x no OpenMP threads

Minimization stats:
  Stopping criterion = force tolerance
  Energy initial, next-to-last, final = 
     -490.088604854272  -490.088604854272  -490.088604854285
  Force two-norm initial, final = 0.0001271763 0.0001270267
  Force max component initial, final = 4.2760271e-05 4.2736158e-05
  Final line search alpha, max atom move = 0 0
  Iterations, force evaluations = 1 2

MPI task timing breakdown:
Section |  min time  |  avg time  |  max time  |%varavg| %total
---------------------------------------------------------------
Pair    | 0.00016933 | 0.00016933 | 0.00016933 |   0.0 | 37.29
Neigh   | 0          | 0          | 0          |   0.0 |  0.00
Comm    | 2.721e-06  | 2.721e-06  | 2.721e-06  |   0.0 |  0.60
Output  | 0          | 0          | 0          |   0.0 |  0.00
Modify  | 0          | 0          | 0          |   0.0 |  0.00
Other   |            | 0.000282   |            |       | 62.11

Nlocal:             62 ave          62 max          62 min
Histogram: 1 0 0 0 0 0 0 0 0 0
Nghost:            174 ave         174 max         174 min
Histogram: 1 0 0 0 0 0 0 0 0 0
Neighs:              0 ave           0 max           0 min
Histogram: 1 0 0 0 0 0 0 0 0 0
FullNghs:         1446 ave        1446 max        1446 min
Histogram: 1 0 0 0 0 0 0 0 0 0

Total # of neighbors = 1446
Ave neighs/atom = 23.322581
Neighbor list builds = 0
Dangerous builds = 0

next nr
jump ${simname}.in loopmin
jump Tersoff.in loopmin

# Minimize the with cg + box/relax
  fix             frb all box/relax tri 0.0 couple none
  min_style       cg
  min_modify      line quadratic
  minimize        0.0 1.0e-3 10000 10000
WARNING: Energy due to 6 extra global DOFs will be included in minimizer energies
 (src/min.cpp:225)
Per MPI rank memory allocation (min/avg/max) = 4.205 | 4.205 | 4.205 Mbytes
   Step          Temp          PotEng           Lx             Ly             Lz            Pxx            Pyy            Pzz            Fmax          Fnorm     
      4234  8.238916241140479e-10   -490.0886048542843    9.927671622419036    8.625143307358393    54.45414696777878 -0.01022068870896136 -0.01527535386144464 -0.0004235872317246227 4.273615788287499e-05 0.0001270267049039337
      4235  8.238916241140479e-10   -490.0886048543017    9.927671115031195    8.625142648533364    54.45414685243593  0.05434726407221034  0.08142270881942301 0.002630946487198245 4.284905975668329e-05 0.0001275186113900239
Loop time of 0.000472653 on 1 procs for 1 steps with 62 atoms

20.7% CPU use with 1 MPI tasks x no OpenMP threads

Minimization stats:
  Stopping criterion = force tolerance
  Energy initial, next-to-last, final = 
     -490.088604854284  -490.088604854284  -490.088604854302
  Force two-norm initial, final = 0.0001505561 0.00034761201
  Force max component initial, final = 4.4455511e-05 0.00023696262
  Final line search alpha, max atom move = 1 0.00023696262
  Iterations, force evaluations = 1 2

MPI task timing breakdown:
Section |  min time  |  avg time  |  max time  |%varavg| %total
---------------------------------------------------------------
Pair    | 0.00017106 | 0.00017106 | 0.00017106 |   0.0 | 36.19
Neigh   | 0          | 0          | 0          |   0.0 |  0.00
Comm    | 2.924e-06  | 2.924e-06  | 2.924e-06  |   0.0 |  0.62
Output  | 0          | 0          | 0          |   0.0 |  0.00
Modify  | 0          | 0          | 0          |   0.0 |  0.00
Other   |            | 0.0002987  |            |       | 63.19

Nlocal:             62 ave          62 max          62 min
Histogram: 1 0 0 0 0 0 0 0 0 0
Nghost:            174 ave         174 max         174 min
Histogram: 1 0 0 0 0 0 0 0 0 0
Neighs:              0 ave           0 max           0 min
Histogram: 1 0 0 0 0 0 0 0 0 0
FullNghs:         1446 ave        1446 max        1446 min
Histogram: 1 0 0 0 0 0 0 0 0 0

Total # of neighbors = 1446
Ave neighs/atom = 23.322581
Neighbor list builds = 0
Dangerous builds = 0

# Minimize the with fire
  unfix           frb
  min_style       fire
  minimize        0.0 1.0e-3 10000 10000
  Parameters for fire:
    dmax  delaystep dtgrow dtshrink alpha0 alphashrink tmax tmin   integrator   halfstepback   abcfire  
     0.1     20      1.1     0.5     0.25     0.99      10  0.02 eulerimplicit      yes          no     
Per MPI rank memory allocation (min/avg/max) = 3.08 | 3.08 | 3.08 Mbytes
   Step          Temp          PotEng           Lx             Ly             Lz            Pxx            Pyy            Pzz            Fmax          Fnorm     
      4235                     0   -490.0886048543015    9.927671115031195    8.625142648533364    54.45414685243593  0.05434726381986339  0.08142270886319329 0.002630942112380906 4.284905971757569e-05 0.0001275186113981681
      4236  8.283327584758172e-10   -490.0886048543148    9.927671115031195    8.625142648533364    54.45414685243593  0.05450249238840409  0.08114758457216527 0.002720252569030727 4.282926137796905e-05 0.0001272837954491009
Loop time of 0.000472916 on 1 procs for 1 steps with 62 atoms

21.1% CPU use with 1 MPI tasks x no OpenMP threads

Minimization stats:
  Stopping criterion = force tolerance
  Energy initial, next-to-last, final = 
     -490.088604854301  -490.088604854301  -490.088604854315
  Force two-norm initial, final = 0.00012751861 0.0001272838
  Force max component initial, final = 4.284906e-05 4.2829261e-05
  Final line search alpha, max atom move = 0 0
  Iterations, force evaluations = 1 2

MPI task timing breakdown:
Section |  min time  |  avg time  |  max time  |%varavg| %total
---------------------------------------------------------------
Pair    | 0.00017101 | 0.00017101 | 0.00017101 |   0.0 | 36.16
Neigh   | 0          | 0          | 0          |   0.0 |  0.00
Comm    | 3.907e-06  | 3.907e-06  | 3.907e-06  |   0.0 |  0.83
Output  | 0          | 0          | 0          |   0.0 |  0.00
Modify  | 0          | 0          | 0          |   0.0 |  0.00
Other   |            | 0.000298   |            |       | 63.01

Nlocal:             62 ave          62 max          62 min
Histogram: 1 0 0 0 0 0 0 0 0 0
Nghost:            174 ave         174 max         174 min
Histogram: 1 0 0 0 0 0 0 0 0 0
Neighs:              0 ave           0 max           0 min
Histogram: 1 0 0 0 0 0 0 0 0 0
FullNghs:         1446 ave        1446 max        1446 min
Histogram: 1 0 0 0 0 0 0 0 0 0

Total # of neighbors = 1446
Ave neighs/atom = 23.322581
Neighbor list builds = 0
Dangerous builds = 0

next nr
jump ${simname}.in loopmin
jump Tersoff.in loopmin

# Minimize the with cg + box/relax
  fix             frb all box/relax tri 0.0 couple none
  min_style       cg
  min_modify      line quadratic
  minimize        0.0 1.0e-3 10000 10000
WARNING: Energy due to 6 extra global DOFs will be included in minimizer energies
 (src/min.cpp:225)
Per MPI rank memory allocation (min/avg/max) = 4.205 | 4.205 | 4.205 Mbytes
   Step          Temp          PotEng           Lx             Ly             Lz            Pxx            Pyy            Pzz            Fmax          Fnorm     
      4236  8.283327584758172e-10   -490.0886048543151    9.927671115031195    8.625142648533364    54.45414685243593  0.05450249224679735  0.08114758436219664 0.002720252567809979 4.28292613793152e-05 0.0001272837954477454
      4237  8.283327584758172e-10   -490.0886048543359    9.927671622029321    8.625143304353116    54.45414699123359 -0.01025272564373528 -0.01527722405228596 -0.0004453301808232464 4.265645809914398e-05 0.0001267436055010408
Loop time of 0.00043498 on 1 procs for 1 steps with 62 atoms

21.6% CPU use with 1 MPI tasks x no OpenMP threads

Minimization stats:
  Stopping criterion = force tolerance
  Energy initial, next-to-last, final = 
     -490.088604854315  -490.088604854315  -490.088604854336
  Force two-norm initial, final = 0.00034636795 0.00015041212
  Force max component initial, final = 0.00023616192 4.4460951e-05
  Final line search alpha, max atom move = 0.4234383 1.8826469e-05
  Iterations, force evaluations = 1 2

MPI task timing breakdown:
Section |  min time  |  avg time  |  max time  |%varavg| %total
---------------------------------------------------------------
Pair    | 0.00015803 | 0.00015803 | 0.00015803 |   0.0 | 36.33
Neigh   | 0          | 0          | 0          |   0.0 |  0.00
Comm    | 2.67e-06   | 2.67e-06   | 2.67e-06   |   0.0 |  0.61
Output  | 0          | 0          | 0          |   0.0 |  0.00
Modify  | 0          | 0          | 0          |   0.0 |  0.00
Other   |            | 0.0002743  |            |       | 63.06

Nlocal:             62 ave          62 max          62 min
Histogram: 1 0 0 0 0 0 0 0 0 0
Nghost:            174 ave         174 max         174 min
Histogram: 1 0 0 0 0 0 0 0 0 0
Neighs:              0 ave           0 max           0 min
Histogram: 1 0 0 0 0 0 0 0 0 0
FullNghs:         1446 ave        1446 max        1446 min
Histogram: 1 0 0 0 0 0 0 0 0 0

Total # of neighbors = 1446
Ave neighs/atom = 23.322581
Neighbor list builds = 0
Dangerous builds = 0

# Minimize the with fire
  unfix           frb
  min_style       fire
  minimize        0.0 1.0e-3 10000 10000
  Parameters for fire:
    dmax  delaystep dtgrow dtshrink alpha0 alphashrink tmax tmin   integrator   halfstepback   abcfire  
     0.1     20      1.1     0.5     0.25     0.99      10  0.02 eulerimplicit      yes          no     
Per MPI rank memory allocation (min/avg/max) = 3.08 | 3.08 | 3.08 Mbytes
   Step          Temp          PotEng           Lx             Ly             Lz            Pxx            Pyy            Pzz            Fmax          Fnorm     
      4237                     0   -490.0886048543362    9.927671622029321    8.625143304353116    54.45414699123359 -0.01025272612262585 -0.01527722412626342 -0.0004453344197464192 4.265645806242335e-05 0.000126743605499969
      4238  8.182948201281156e-10   -490.0886048543491    9.927671622029321    8.625143304353116    54.45414699123359 -0.01018302268504007 -0.01521403038641519 -0.0004141764787040428 4.263228029549593e-05 0.0001265947844672109
Loop time of 0.000461286 on 1 procs for 1 steps with 62 atoms

21.7% CPU use with 1 MPI tasks x no OpenMP threads

Minimization stats:
  Stopping criterion = force tolerance
  Energy initial, next-to-last, final = 
     -490.088604854336  -490.088604854336  -490.088604854349
  Force two-norm initial, final = 0.00012674361 0.00012659478
  Force max component initial, final = 4.2656458e-05 4.263228e-05
  Final line search alpha, max atom move = 0 0
  Iterations, force evaluations = 1 2

MPI task timing breakdown:
Section |  min time  |  avg time  |  max time  |%varavg| %total
---------------------------------------------------------------
Pair    | 0.00016986 | 0.00016986 | 0.00016986 |   0.0 | 36.82
Neigh   | 0          | 0          | 0          |   0.0 |  0.00
Comm    | 2.724e-06  | 2.724e-06  | 2.724e-06  |   0.0 |  0.59
Output  | 0          | 0          | 0          |   0.0 |  0.00
Modify  | 0          | 0          | 0          |   0.0 |  0.00
Other   |            | 0.0002887  |            |       | 62.59

Nlocal:             62 ave          62 max          62 min
Histogram: 1 0 0 0 0 0 0 0 0 0
Nghost:            174 ave         174 max         174 min
Histogram: 1 0 0 0 0 0 0 0 0 0
Neighs:              0 ave           0 max           0 min
Histogram: 1 0 0 0 0 0 0 0 0 0
FullNghs:         1446 ave        1446 max        1446 min
Histogram: 1 0 0 0 0 0 0 0 0 0

Total # of neighbors = 1446
Ave neighs/atom = 23.322581
Neighbor list builds = 0
Dangerous builds = 0

next nr
jump ${simname}.in loopmin
jump Tersoff.in loopmin

# Minimize the with cg + box/relax
  fix             frb all box/relax tri 0.0 couple none
  min_style       cg
  min_modify      line quadratic
  minimize        0.0 1.0e-3 10000 10000
Per MPI rank memory allocation (min/avg/max) = 4.205 | 4.205 | 4.205 Mbytes
   Step          Temp          PotEng           Lx             Ly             Lz            Pxx            Pyy            Pzz            Fmax          Fnorm     
WARNING: Too many warnings: 101 vs 100. All future warnings will be suppressed (src/thermo.cpp:472)
      4238  8.182948201281156e-10   -490.0886048543487    9.927671622029321    8.625143304353116    54.45414699123359 -0.01018302276744054 -0.01521403028204127 -0.0004141764957945094 4.263228035185362e-05 0.0001265947844547027
      4239  8.182948201281156e-10    -490.088604854367    9.927671115288716    8.625142646585962    54.45414687818052  0.05429582418785608  0.08132860308299543  0.00263351881373027 4.274464594103411e-05 0.0001270865515471527
Loop time of 0.000551858 on 1 procs for 1 steps with 62 atoms

27.7% CPU use with 1 MPI tasks x no OpenMP threads

Minimization stats:
  Stopping criterion = force tolerance
  Energy initial, next-to-last, final = 
     -490.088604854349  -490.088604854349  -490.088604854367
  Force two-norm initial, final = 0.00015014292 0.0003471597
  Force max component initial, final = 4.4277043e-05 0.00023668875
  Final line search alpha, max atom move = 1 0.00023668875
  Iterations, force evaluations = 1 2

MPI task timing breakdown:
Section |  min time  |  avg time  |  max time  |%varavg| %total
---------------------------------------------------------------
Pair    | 0.00027802 | 0.00027802 | 0.00027802 |   0.0 | 50.38
Neigh   | 0          | 0          | 0          |   0.0 |  0.00
Comm    | 5.301e-06  | 5.301e-06  | 5.301e-06  |   0.0 |  0.96
Output  | 0          | 0          | 0          |   0.0 |  0.00
Modify  | 0          | 0          | 0          |   0.0 |  0.00
Other   |            | 0.0002685  |            |       | 48.66

Nlocal:             62 ave          62 max          62 min
Histogram: 1 0 0 0 0 0 0 0 0 0
Nghost:            174 ave         174 max         174 min
Histogram: 1 0 0 0 0 0 0 0 0 0
Neighs:              0 ave           0 max           0 min
Histogram: 1 0 0 0 0 0 0 0 0 0
FullNghs:         1446 ave        1446 max        1446 min
Histogram: 1 0 0 0 0 0 0 0 0 0

Total # of neighbors = 1446
Ave neighs/atom = 23.322581
Neighbor list builds = 0
Dangerous builds = 0

# Minimize the with fire
  unfix           frb
  min_style       fire
  minimize        0.0 1.0e-3 10000 10000
  Parameters for fire:
    dmax  delaystep dtgrow dtshrink alpha0 alphashrink tmax tmin   integrator   halfstepback   abcfire  
     0.1     20      1.1     0.5     0.25     0.99      10  0.02 eulerimplicit      yes          no     
Per MPI rank memory allocation (min/avg/max) = 3.08 | 3.08 | 3.08 Mbytes
   Step          Temp          PotEng           Lx             Ly             Lz            Pxx            Pyy            Pzz            Fmax          Fnorm     
      4239                     0    -490.088604854367    9.927671115288716    8.625142646585962    54.45414687818052  0.05429582403440834  0.08132860287528705 0.002633514490283881 4.274464605776018e-05 0.0001270865515326124
      4240  8.227291366287386e-10   -490.0886048543794    9.927671115288716    8.625142646585962    54.45414687818052   0.0544495039835467   0.0810542387025653 0.002723596601873582 4.272477926109408e-05 0.0001268524273290854
Loop time of 0.000546793 on 1 procs for 1 steps with 62 atoms

24.0% CPU use with 1 MPI tasks x no OpenMP threads

Minimization stats:
  Stopping criterion = force tolerance
  Energy initial, next-to-last, final = 
     -490.088604854367  -490.088604854367  -490.088604854379
  Force two-norm initial, final = 0.00012708655 0.00012685243
  Force max component initial, final = 4.2744646e-05 4.2724779e-05
  Final line search alpha, max atom move = 0 0
  Iterations, force evaluations = 1 2

MPI task timing breakdown:
Section |  min time  |  avg time  |  max time  |%varavg| %total
---------------------------------------------------------------
Pair    | 0.00024293 | 0.00024293 | 0.00024293 |   0.0 | 44.43
Neigh   | 0          | 0          | 0          |   0.0 |  0.00
Comm    | 4.041e-06  | 4.041e-06  | 4.041e-06  |   0.0 |  0.74
Output  | 0          | 0          | 0          |   0.0 |  0.00
Modify  | 0          | 0          | 0          |   0.0 |  0.00
Other   |            | 0.0002998  |            |       | 54.83

Nlocal:             62 ave          62 max          62 min
Histogram: 1 0 0 0 0 0 0 0 0 0
Nghost:            174 ave         174 max         174 min
Histogram: 1 0 0 0 0 0 0 0 0 0
Neighs:              0 ave           0 max           0 min
Histogram: 1 0 0 0 0 0 0 0 0 0
FullNghs:         1446 ave        1446 max        1446 min
Histogram: 1 0 0 0 0 0 0 0 0 0

Total # of neighbors = 1446
Ave neighs/atom = 23.322581
Neighbor list builds = 0
Dangerous builds = 0

next nr
jump ${simname}.in loopmin
jump Tersoff.in loopmin

variable        energy equal pe
fix             output all ave/time 1 1 1 v_energy file ${simname}_energy.data
fix             output all ave/time 1 1 1 v_energy file Tersoff_energy.data
dump            dump1 all custom 1 ${simname}.lammpstrj id type x y z fx fy fz
dump            dump1 all custom 1 Tersoff.lammpstrj id type x y z fx fy fz
dump_modify     dump1 sort id

fix             nve all nve
run             0
Per MPI rank memory allocation (min/avg/max) = 3.08 | 3.08 | 3.08 Mbytes
   Step          Temp          PotEng           Lx             Ly             Lz            Pxx            Pyy            Pzz            Fmax          Fnorm     
      4240  8.227291366287386e-10   -490.0886048543791    9.927671115288716    8.625142646585962    54.45414687818052  0.05444950419595681  0.08105423850571972 0.002723596848464631 4.272477918215722e-05 0.0001268524273070009
Loop time of 7.64e-07 on 1 procs for 0 steps with 62 atoms

261.8% CPU use with 1 MPI tasks x no OpenMP threads

MPI task timing breakdown:
Section |  min time  |  avg time  |  max time  |%varavg| %total
---------------------------------------------------------------
Pair    | 0          | 0          | 0          |   0.0 |  0.00
Neigh   | 0          | 0          | 0          |   0.0 |  0.00
Comm    | 0          | 0          | 0          |   0.0 |  0.00
Output  | 0          | 0          | 0          |   0.0 |  0.00
Modify  | 0          | 0          | 0          |   0.0 |  0.00
Other   |            | 7.64e-07   |            |       |100.00

Nlocal:             62 ave          62 max          62 min
Histogram: 1 0 0 0 0 0 0 0 0 0
Nghost:            174 ave         174 max         174 min
Histogram: 1 0 0 0 0 0 0 0 0 0
Neighs:              0 ave           0 max           0 min
Histogram: 1 0 0 0 0 0 0 0 0 0
FullNghs:         1446 ave        1446 max        1446 min
Histogram: 1 0 0 0 0 0 0 0 0 0

Total # of neighbors = 1446
Ave neighs/atom = 23.322581
Neighbor list builds = 0
Dangerous builds = 0
Total wall time: 0:00:01
