ITEM: TIMESTEP
4240
ITEM: NUMBER OF ATOMS
62
ITEM: BOX BOUNDS xy xz yz pp pp pp
-2.0138567513356525e+00 1.4768718866904511e+01 4.9158516823601248e+00
-1.1186132553466246e+00 8.5653326943929553e+00 -1.9390528205913213e+00
-2.3616921020403550e+00 5.2092454776140158e+01 -1.0588033031536186e+00
ITEM: ATOMS id type x y z fx fy fz
1 1 13.9342 8.10882 18.6181 -4.8736e-07 -1.7417e-06 -5.96867e-07
2 1 0.328798 0.203127 18.6586 -2.65366e-06 -2.66756e-06 -9.91237e-06
3 1 0.37106 0.227667 22.429 2.16057e-06 2.08583e-06 -1.95923e-05
4 1 1.61503 0.950503 22.4256 -6.64872e-07 1.14847e-06 -6.37674e-06
5 1 10.2458 1.64024 18.7269 -9.14164e-07 -1.73433e-06 -1.05057e-05
6 1 1.57361 2.35995 18.7686 -3.13267e-06 -3.20982e-06 3.77798e-06
7 1 1.57428 2.4044 22.3766 1.79832e-06 1.98315e-06 2.97431e-06
8 1 2.82568 3.14093 22.3228 -4.92758e-07 3.08148e-06 2.74408e-05
9 1 11.4941 3.78872 18.7202 -4.61294e-07 -1.76891e-06 9.83672e-06
10 1 2.79107 4.51529 18.8294 -4.01799e-06 -3.2112e-06 1.96146e-05
11 1 2.85553 4.5449 22.2144 3.88916e-06 2.45519e-06 1.816e-05
12 1 4.04593 5.30245 21.9897 2.67932e-06 -1.34132e-06 5.86867e-06
13 1 12.704 5.94766 18.6525 -8.71225e-07 -1.75761e-06 1.88193e-05
14 1 4.00614 6.68087 18.6916 -2.93635e-06 -3.55127e-06 3.70771e-06
15 1 4.04949 6.70604 22.3265 3.65093e-06 2.17945e-06 -5.1401e-06
16 1 5.29548 7.41147 22.3656 5.00665e-07 2.13329e-06 -1.93274e-05
17 1 6.48792 8.10737 18.7269 -2.94189e-07 -2.68238e-06 -1.13584e-05
18 1 2.81903 0.216628 18.7686 -3.19154e-06 -3.02063e-06 3.18316e-06
19 1 2.85799 0.195177 22.3766 1.68792e-06 2.09078e-06 3.6019e-06
20 1 4.11754 0.917685 22.3228 4.01213e-07 8.62616e-07 2.84246e-05
21 1 2.83393 1.65878 18.8913 -1.88231e-06 -3.13237e-06 9.984e-06
22 1 4.09485 2.39147 19.1399 -5.78142e-06 -5.02631e-06 1.61094e-05
23 1 3.83159 2.23848 22.3291 3.01467e-06 2.60822e-06 4.27174e-05
24 1 4.0161 3.83009 19.2417 -3.57697e-06 -4.097e-06 1.62502e-05
25 1 4.98491 4.76441 19.7969 1.33971e-07 -5.27041e-06 2.77545e-06
26 1 5.22986 4.90673 21.2212 2.60191e-06 -8.84429e-07 -1.7687e-06
27 1 6.52132 5.28578 21.7764 3.1162e-06 4.41539e-06 -1.49919e-05
28 1 5.22735 5.98895 19.0284 1.55465e-06 -5.88859e-06 -7.14509e-06
29 1 6.47495 6.64806 18.8037 -2.94184e-06 -4.26668e-06 -1.95088e-05
30 1 6.53261 6.68937 22.1887 3.56678e-06 3.54686e-06 -1.93631e-05
31 1 7.77025 7.39357 22.2979 4.83084e-08 2.12012e-06 -9.17489e-06
32 1 8.97264 8.12805 18.7202 -4.82961e-08 -2.12005e-06 9.17437e-06
33 1 5.29443 0.207106 18.8294 -3.5668e-06 -3.54687e-06 1.93644e-05
34 1 5.35209 0.248423 22.2144 2.94189e-06 4.26642e-06 1.95075e-05
35 1 6.59969 0.907528 21.9897 -1.55437e-06 5.8884e-06 7.14602e-06
36 1 5.30572 1.61069 19.2417 -3.11624e-06 -4.41547e-06 1.49937e-05
37 1 6.59719 1.98974 19.7969 -2.60175e-06 8.84698e-07 1.77014e-06
38 1 6.84213 2.13207 21.2212 -1.33657e-07 5.27042e-06 -2.77402e-06
39 1 7.81094 3.06639 21.7764 3.57688e-06 4.09701e-06 -1.62484e-05
40 1 7.99545 4.658 18.689 -3.01474e-06 -2.60826e-06 -4.27248e-05
41 1 7.73219 4.50501 21.8782 5.78127e-06 5.02622e-06 -1.61073e-05
42 1 8.99312 5.23769 22.1268 1.88221e-06 3.13231e-06 -9.98232e-06
43 1 7.7095 5.97879 18.6953 -4.01333e-07 -8.62662e-07 -2.84298e-05
44 1 8.96905 6.7013 18.6415 -1.68794e-06 -2.09066e-06 -3.60548e-06
45 1 9.00801 6.67985 22.2495 3.19151e-06 3.02059e-06 -3.18222e-06
46 1 10.255 7.41425 22.2912 2.94176e-07 2.68231e-06 1.13593e-05
47 1 11.4474 8.11015 18.6525 -5.0062e-07 -2.13328e-06 1.9329e-05
48 1 7.77755 0.190434 18.6916 -3.65093e-06 -2.17947e-06 5.14242e-06
49 1 7.8209 0.215605 22.3265 2.93633e-06 3.55127e-06 -3.70539e-06
50 1 9.05075 0.948815 22.3656 8.71251e-07 1.75765e-06 -1.88177e-05
51 1 7.78111 1.59403 19.0284 -2.67935e-06 1.34165e-06 -5.86773e-06
52 1 8.97151 2.35158 18.8037 -3.88937e-06 -2.45502e-06 -1.81612e-05
53 1 9.03597 2.38119 22.1887 4.01797e-06 3.21118e-06 -1.96134e-05
54 1 10.2606 3.10776 22.2979 4.61359e-07 1.76889e-06 -9.83723e-06
55 1 9.00136 3.75555 18.6953 4.92658e-07 -3.08157e-06 -2.7446e-05
56 1 10.2528 4.49208 18.6415 -1.79822e-06 -1.98322e-06 -2.97788e-06
57 1 10.2534 4.53652 22.2495 3.13262e-06 3.20981e-06 -3.77704e-06
58 1 11.5089 5.25623 22.2912 9.14093e-07 1.73435e-06 1.05066e-05
59 1 10.212 5.94598 18.5925 6.64953e-07 -1.14843e-06 6.37379e-06
60 1 11.456 6.66881 18.5891 -2.16048e-06 -2.08577e-06 1.95924e-05
61 1 11.4982 6.69335 22.3595 2.65361e-06 2.66753e-06 9.91447e-06
62 1 12.7364 7.4128 22.4 4.87323e-07 1.74168e-06 5.99787e-07
