ITEM: TIMESTEP
1742
ITEM: NUMBER OF ATOMS
62
ITEM: BOX BOUNDS xy xz yz pp pp pp
9.1829976929482124e-02 1.4510020707650337e+01 4.8059064793696198e+00
7.9578081662702888e-02 8.4040340333907633e+00 4.7116021016483154e-04
-6.0471585254677807e-01 5.0556468186146958e+01 3.8163695337885609e-04
ITEM: ATOMS id type x y z fx fy fz
1 1 0.0989986 0.0835335 22.7946 -1.23521e-07 1.00169e-07 2.14776e-07
2 1 1.29599 0.774615 22.695 2.08342e-07 -1.70336e-08 -6.08224e-06
3 1 0.0989987 0.0835335 18.9714 -1.35992e-07 9.16351e-08 -2.06985e-07
4 1 1.29599 0.774615 19.0709 1.99782e-07 -2.22979e-08 5.97028e-06
5 1 10.8885 2.16903 22.604 5.14401e-10 -1.40279e-07 -6.87896e-06
6 1 2.49392 2.84949 22.695 2.43858e-07 1.02127e-07 -6.02118e-06
7 1 10.8885 2.16903 19.162 -1.3422e-08 -1.45095e-07 6.759e-06
8 1 2.49392 2.84949 19.0709 2.38097e-07 9.59293e-08 5.94728e-06
9 1 2.49392 4.23166 22.7946 -2.8765e-07 -2.07469e-07 2.25276e-07
10 1 3.70062 4.92141 22.7483 4.4497e-07 -1.30653e-07 2.6407e-06
11 1 2.49392 4.23166 18.9714 -2.88077e-07 -2.10646e-07 -2.37717e-07
12 1 3.70062 4.92141 19.0177 4.35749e-07 -1.33385e-07 -2.53318e-06
13 1 3.70837 6.31446 22.8986 2.07267e-07 -2.69484e-07 7.18027e-06
14 1 4.91092 7.0177 22.7483 4.58488e-07 -9.57841e-08 2.56697e-06
15 1 3.70837 6.31446 18.8674 1.95377e-07 -2.72852e-07 -7.05167e-06
16 1 4.91092 7.0177 19.0177 4.43716e-07 -1.00343e-07 -2.48823e-06
17 1 7.29983 8.38473 22.604 -2.55888e-07 2.41271e-07 -6.82181e-06
18 1 3.69185 0.774615 22.695 3.64161e-07 -6.59799e-08 -5.9722e-06
19 1 7.29983 8.38473 19.162 -2.67628e-07 2.32181e-07 6.71415e-06
20 1 3.69185 0.774615 19.0709 3.55326e-07 -6.78546e-08 5.90287e-06
21 1 3.71119 2.16903 22.604 -4.25138e-07 -8.99908e-08 -6.73593e-06
22 1 4.92034 2.86713 22.3919 3.02448e-07 6.03482e-08 -3.65973e-06
23 1 3.71119 2.16903 19.162 -4.32013e-07 -9.32642e-08 6.70446e-06
24 1 4.92034 2.86713 19.374 2.83834e-07 5.09095e-08 3.72917e-06
25 1 4.86011 4.26424 22.2774 -8.31834e-07 4.77318e-07 -8.21997e-07
26 1 5.76713 5.12583 21.5889 -2.28444e-06 1.40595e-06 -8.71921e-07
27 1 4.86011 4.26424 19.4886 -8.51373e-07 4.66739e-07 9.25261e-07
28 1 5.76713 5.12583 20.1771 -2.29049e-06 1.40154e-06 9.40962e-07
29 1 6.05978 6.34213 22.2774 -9.63969e-07 4.51045e-07 -8.96381e-07
30 1 7.29983 6.98853 22.3919 2.051e-07 -5.87119e-08 -3.71527e-06
31 1 6.05978 6.34213 19.4886 -9.73309e-07 4.46174e-07 9.39279e-07
32 1 7.29983 6.98853 19.374 1.9057e-07 -6.52534e-08 3.65877e-06
33 1 4.88884 0.0835335 22.7946 -5.04691e-07 1.30956e-07 2.46405e-07
34 1 6.08953 0.783697 22.7483 2.31649e-07 2.74018e-07 2.73453e-06
35 1 4.88884 0.0835335 18.9714 -5.09003e-07 1.31618e-07 -2.66649e-07
36 1 6.08953 0.783697 19.0177 2.23482e-07 2.68793e-07 -2.65213e-06
37 1 6.10015 2.11642 22.2774 -6.82487e-09 -7.01873e-07 -8.87705e-07
38 1 7.29983 2.47113 21.5889 1.80199e-07 -2.62834e-06 -8.10161e-07
39 1 6.10015 2.11642 19.4886 -2.6002e-08 -7.11136e-07 9.69126e-07
40 1 7.29983 2.47113 20.1771 1.72806e-07 -2.62801e-06 8.53583e-07
41 1 8.83252 5.12583 21.5889 2.32818e-06 1.22347e-06 -8.02886e-07
42 1 8.83252 5.12583 20.1771 2.30289e-06 1.20951e-06 7.20978e-07
43 1 8.53987 6.34213 22.2774 5.37844e-07 2.31243e-07 -1.06341e-06
44 1 9.68873 7.0177 22.7483 -1.10774e-08 -1.23543e-07 2.70063e-06
45 1 8.53987 6.34213 19.4886 5.1827e-07 2.20193e-07 9.81972e-07
46 1 9.68873 7.0177 19.0177 -2.16639e-08 -1.25047e-07 -2.76151e-06
47 1 7.29983 0.0938809 22.8986 -2.75567e-07 5.31568e-07 7.1504e-06
48 1 8.51012 0.783697 22.7483 2.56319e-07 2.38081e-07 2.5734e-06
49 1 7.29983 0.0938809 18.8674 -2.84496e-07 5.23056e-07 -7.0468e-06
50 1 8.51012 0.783697 19.0177 2.45701e-07 2.28048e-07 -2.52246e-06
51 1 8.4995 2.11642 22.2774 -1.59023e-07 -9.27037e-07 -1.00286e-06
52 1 9.67931 2.86713 22.3919 2.19452e-07 -4.10152e-09 -3.72369e-06
53 1 8.4995 2.11642 19.4886 -1.70148e-07 -9.29243e-07 1.01479e-06
54 1 9.67931 2.86713 19.374 2.04817e-07 -1.11222e-08 3.64536e-06
55 1 9.73954 4.26424 22.2774 5.40023e-07 4.74571e-07 -1.10426e-06
56 1 10.899 4.92141 22.7483 2.94173e-08 -1.33835e-07 2.61314e-06
57 1 9.73954 4.26424 19.4886 5.1849e-07 4.64755e-07 1.0137e-06
58 1 10.899 4.92141 19.0177 2.33765e-08 -1.41382e-07 -2.67669e-06
59 1 10.8913 6.31446 22.8986 -7.30858e-07 -2.5351e-07 7.0732e-06
60 1 12.1057 7.01562 22.9602 2.76037e-07 -4.98783e-09 1.02358e-05
61 1 10.8913 6.31446 18.8674 -7.3521e-07 -2.55943e-07 -7.09207e-06
62 1 12.1057 7.01562 18.8058 2.72753e-07 -7.72922e-09 -1.01378e-05
