units           metal
atom_style      atomic
boundary        p p p
processors		  * * 1
read_data		    AA3.data
Reading data file ...
  triclinic box = (0 0 0) to (9.795473 8.4832305 49.951752) with tilt (4.8985647 -5.3998159e-06 0.0001022259)
WARNING: Triclinic box skew is large. LAMMPS will run inefficiently. (src/domain.cpp:220)
  1 by 1 by 1 MPI processor grid
  reading atoms ...
  62 atoms
  read_data CPU = 0.011 seconds
mass            1 12.011

# Define potentials
pair_style      airebo 3.0
pair_coeff      * * CH.airebo C
Reading airebo potential file CH.airebo with DATE: 2011-10-25


# Variable
variable        thermofrq equal 10
variable        Nloop equal 100     # number of loop to run
variable        binding equal pe


# Output
thermo          ${thermofrq}
thermo          10
thermo_style    custom step temp pe lx ly lz pxx pyy pzz fmax fnorm
thermo_modify   line one format float %20.16g
thermo_modify   flush yes norm no lost warn

# Minimize the system in loops
timestep        1.0e-3
variable        nr loop ${Nloop}
variable        nr loop 100
label           loopmin

# Minimize the with cg + box/relax
  fix             frb all box/relax tri 0.0 couple none
  min_style       cg
  min_modify      line quadratic
  minimize        0.0 1.0e-3 10000 10000
Neighbor list info ...
  update: every = 1 steps, delay = 0 steps, check = yes
  max neighbors/atom: 2000, page size: 100000
  master list distance cutoff = 12.2
  ghost atom cutoff = 12.2
  binsize = 6.1, bins = 3 2 9
  1 neighbor lists, perpetual/occasional/extra = 1 0 0
  (1) pair airebo, perpetual
      attributes: full, newton on, ghost
      pair build: full/bin/ghost
      stencil: full/ghost/bin/3d
      bin: standard
WARNING: Energy due to 6 extra global DOFs will be included in minimizer energies
 (src/min.cpp:225)
Per MPI rank memory allocation (min/avg/max) = 5.044 | 5.044 | 5.044 Mbytes
   Step          Temp          PotEng           Lx             Ly             Lz            Pxx            Pyy            Pzz            Fmax          Fnorm     
         0                     0   -456.8456779323777          9.795473045    8.483230478099999        49.9517523336   -23653.52491251168   -23639.84747418539   -2429.353140770537   0.8830875556022033    4.853087845470283
        10                     0   -456.9656058282679    9.785677571955002    8.474752230143363     49.9465650031846   -22387.40469670258   -22373.92786258465   -2359.412488180093   0.8819082902839279    4.853868915638011
        20                     0   -457.0783939418363    9.775882098910005    8.466274275767089    49.94124124205428   -21103.92532824841   -21090.23533268417   -2287.763262110378   0.8807288140000578    4.858651737395929
        30                     0   -457.1840139740268    9.766086625865006    8.457796812753196    49.93576336391639   -19802.90129928798   -19788.66209223482   -2214.322992566164   0.8795268829061166    4.867322905863003
        40                     0   -457.2824452548057    9.756291152820008    8.449320044444178    49.93010985258287   -18484.15416594562   -18469.11350433885   -2138.994823310834   0.8782758319553585    4.879676957638194
        50                     0    -457.373676302433    9.746495679775011    8.440844184961096    49.92425415946191   -17147.50908313078   -17131.48692906203   -2061.662146779436   0.8769433357395265    4.895399506960575
        60                     0   -457.4577068767943    9.736700206730013    8.432369457124306    49.91816298054793   -15792.79219460513   -15775.71421609656   -1982.182339037003   0.8754896745896759    4.914054040645821
        70                     0   -457.5345507247528    9.726904733685014    8.423896090087469    49.91179372255766    -14419.8370244157   -14401.72571186941   -1900.376726780847   0.8764815038527035    4.935055335608239
        80                     0   -457.6042392225693    9.717109260640017    8.415424324013195    49.90509064309524   -13028.47873901102   -13009.46742275651   -1816.016338333213   0.8833130650644774    4.957632192228742
        90                     0   -457.6668266102747     9.70731378759502    8.406954400338977    49.89797872382309   -11618.54356126842   -11598.91046217631     -1728.7964914069   0.8886551323389081    4.980774422769858
       100                     0   -457.7223977290987    9.697518314550022    8.398486541590561    49.89035346653435     -10189.849883224   -10170.04005864126   -1638.296256313751   0.8920928168097721    5.003152104026692
       110                     0   -457.7710800579546    9.687722841505025      8.3900209246933    49.88206280394079    -8742.21311491839   -8722.855584022602   -1543.907646781916   0.8930526096729103    5.022980798722993
       120                     0   -457.8130639448285    9.677927368460026    8.381557629059868    49.87287238413153   -7275.423511902524   -7257.362394582697   -1444.697879602206   0.8907025528979756    5.037792651459953
       130                     0    -457.848640381862    9.668131895415028    8.373096508296491    49.86239139668018   -5789.223910016908   -5773.551749699344   -1339.113892543264   0.8837461092890666    5.043981786563556
       140                     0   -457.8782827746499    9.658336422370031     8.36463685547267    49.84988790734705   -4283.219675319239   -4271.312885228792   -1224.245299826802   0.8699426402270112    5.035770568200586
       150                     0   -457.9028179234384    9.648564783086325    8.356196952846007    49.83374881851393   -2760.349926138782   -2753.853277402654   -1093.825404765935   0.8464518951275396     5.00233015025819
       160                     0    -457.920120227876    9.640815044677227    8.349497515876418    49.81502585141757   -1536.490447340339   -1535.494691425347   -965.8814535528606   0.8246927816921482    4.939394781079632
       170                     0   -457.9324357876583    9.635717371635284    8.345079037017667    49.79420275828275   -721.1353373719386   -723.9011970576803    -847.210386752566   0.8086959508374023    4.852577635317695
       180                     0   -457.9435112805958    9.632683044341881    8.342430577584432    49.76777797388514   -227.3145031420579   -231.2289514292095   -719.8343605217739   0.7865134248457732    4.731845645867202
       190                     0   -457.9580994304211    9.631446952636081    8.341323094057579    49.72503504484432   -13.57499407675165    -15.7048556842904   -537.4508326541352   0.7447452522189663    4.515954430071606
       200                     0   -457.9767637156181    9.631433063643721    8.341285255034101    49.67508329251071    2.536657693358667    1.770345001230562   -328.5478830983079   0.6784835869497582    4.190318635223704
       210                     0   -458.0065135229344    9.631451761502211    8.341276949357184     49.6251315401771   -1.586634705724143   -2.091624485109362   -100.6913733418591   0.5718908476731436    3.627430779615536
       220                     0   -458.0905968973774    9.630691983484871    8.340537849462848    49.63512189064382   -4.399021364974454   -4.524503214353831    88.49277402793075   0.4321343634308253    2.107997567336735
       230                     0   -458.1133974864382     9.63014915514599    8.340055423631219    49.68507364297743   -3.501539636809281    -3.57945828148655    62.45649244324101   0.3865013606173119    1.896459035407345
       240                     0   -458.1348180176873    9.629533677584574    8.339513540234922    49.73502539531103    5.452447572337798    5.410889246251026    59.81051070260894   0.3410288422157381     1.70054826122625
       250                     0   -458.1510696613299    9.628724258418011    8.338807126144125    49.77919009487653    57.90015871421939    57.90155747062167    59.85161995569957    0.303942794041335    1.548878476793845
       260                     0   -458.1642394020045    9.628235143365995     8.33837984752132    49.81992437029756    66.63883283738606     66.6467613778975    57.32862991818271   0.2715626795949937    1.420110329642088
       270                     0   -458.1756126678073    9.627911158995577    8.338096354242264    49.85940948096647     52.4666539784121    52.46756380901849    53.43495778626595   0.2415159829689792    1.303125905814696
       280                     0   -458.1856835676946     9.62744138046728    8.337686897477004    49.89843466613455    63.62065080701578    63.62693590974261    50.90663464687763   0.2310030928345485     1.19453140660857
       290                     0   -458.1944828591189    9.627139761744582    8.337423371068789    49.93642871323581    50.77351080097276    50.77451740246091    47.08836920978987   0.2207686003481465    1.094646917878649
       300                     0    -458.202327458371    9.626713758814148    8.337052184530787    49.97407473926523    59.41448780426308    59.41865542902634    44.51923444121761   0.2106403751471406    1.001674223145137
       310                     0   -458.2092822760325    9.626411468717132    8.336788235826949     50.0111544887052    50.22919492779928    50.22975668786808    41.03038806321339   0.2005498845505011   0.9155953434156985
       320                     0   -458.2155148155672    9.626030325584916    8.336455979008376    50.04801262930599    54.85836720985112    54.86077872829359    38.40372173946054    0.190559090876412   0.8359057593559935
       330                     0   -458.2211446932279    9.625732083534515       8.336195513507    50.08491048908335    47.04903697344974    47.04889986286697    35.15077995322257   0.1805236968787371   0.7619577526244008
       340                     0   -458.2262270521318    9.625325078923405    8.335840790667362    50.12173722833382     57.3156739085786    57.31898611789434    33.03621110509982   0.1706380824996858   0.6945726927730206
       350                     0   -458.2309003932671    9.625017319475219    8.335571962999932    50.15904341700618    51.62368764872347    51.62602720779591    30.09763058921081   0.1606605464176035   0.6327674953740174
       360                     0   -458.2352211806962    9.624634509541593    8.335238037424201    50.19683455067725    57.44014205068977    57.44442444972206    27.92772840530487    0.150766053153001    0.577355744642151
       370                     0   -458.2393001479074    9.624265369673775    8.334915826735815    50.23559065200681    59.70554138269675    59.71128933176292    25.65605103744544   0.1408434050262847   0.5279967800308597
       380                     0   -458.2432312928466    9.623873283050477    8.334573582116231    50.27569747592327     63.2869268194128    63.29492166666824    23.56749837575346   0.1309194323010467   0.4848178141840985
       390                     0   -458.2468121828954    9.623506300817924    8.334253129225598     50.3142049840554    64.44592494984421    64.45449744095964    21.62941314952116   0.1218050579478972   0.4504981332043356
       400                     0   -458.2507540919876    9.623041596711406    8.333847572568303      50.358244100927    71.43155028575534     71.4445545384184     19.9688879314495   0.1119800070368528   0.4186869150401679
       410                     0   -458.2548744914214    9.622548881209983    8.333417494023054    50.40515580283596    76.09904942180853    76.11598271029094    18.31381743338758   0.1088687495411829   0.3917726835474402
       420                     0   -458.2592284535759    9.622100460711744    8.333025592328058    50.45471223191683    66.21054705410748    66.22230765113953     15.9841717428485   0.1114621932329354   0.3685188815584164
       430                     0   -458.2635888416073    9.621849765999702    8.332805070848851    50.50362934958858    22.08033008981445    22.07095993716368    11.91080149238576    0.111334017366516     0.34818575173307
       440                     0   -458.2671707377939    9.621618132263764    8.332603027102742    50.54276123084171   -11.99339387386972   -12.20825418181778     8.89095001604951   0.1092271632008617    0.333048498527777
       450                     0   -458.2699588502892    9.620844674566616    8.331786747545854    50.57265953737728    55.79579237396892     77.2923308646683    12.91044095098444   0.1071878543146389   0.3229235805553114
       460                     0    -458.272275388714    9.621002686322667    8.331894377692882    50.59756192373261   -16.21823205568111    9.391888743219255    8.201375134125618   0.1043612741564431   0.3132612989742507
       470                     0   -458.2746463706981    9.620294455717394    8.331443598563856    50.62286309031384     42.9176751200343    43.84742767191879     10.5057236998222   0.1017365853925619   0.3037728646217701
       480                     0   -458.2778411262728    9.620408973366713    8.331606293746171    50.65751335043959   -44.98051924731726   -53.91967256911224    4.245696781594923  0.09690180968388172   0.2901000884047561
       490                     0   -458.2807177824067    9.620058473498576    8.331697536630381    50.68875047897091   -59.84545609555554   -128.2595421737362   0.9688772244787214  0.09226375877287595   0.2786504172012091
       500                     0   -458.2825382784182     9.61917770651376    8.330434367954799    50.70781398739963    45.94849096042402    52.38324231506742     9.31740192304952  0.09015008743358502   0.2712018801467428
       510                     0   -458.2839443669203    9.620052923763531    8.331169093088249    50.72347706713592    -123.302202458126   -113.5416190053072   -1.134445727841352  0.08684627903289181   0.2631198473159505
       520                     0   -458.2856127024341    9.618601314461403     8.33009442032342    50.74099790119029    63.54273781691999    45.81248312607973    9.098890750487726  0.08499677949867049   0.2577815680918338
       530                     0   -458.2880186160031    9.618298719688083    8.329487488173084    50.76741773372389    59.35696995632811    93.07186354766517    9.983988568850172  0.08085835243883804   0.2479806289631198
       540                     0   -458.2892373445028    9.619104615004089    8.329788053430645    50.78090604843594   -89.67557865682531    3.376434804290297    2.467981402523174  0.07798497926008312   0.2409338683536108
       550                     0    -458.290346374169    9.618741663300876    8.329347989948607    50.79300160475189   -57.62494540761313    54.14000395623496     4.80573213459988  0.07619044846774058    0.236546863386471
       560                     0   -458.2914201399548      9.6187133331567    8.329063077105847    50.80501638505549   -75.73315625845737    74.88063331257727    4.692023209539208   0.0741741600341532    0.233953009406924
       570                     0   -458.2930690262561    9.618657742733694    8.328659185864604    50.82333493083679   -102.4446492331902    101.1719338218804    4.393948476532687  0.07105489004433403   0.2260935152979785
       580                     0   -458.2941558160209    9.618501753698965    8.328491748981351    50.83547880572697   -104.9553944304744    103.3517033529673    4.189961418608442   0.0689666162194028   0.2207657893784268
       590                     0    -458.295949084302    9.616668553751053    8.328715075753964    50.85560834584271     107.312518283814    44.64249143041678    8.620985946164147  0.06590207192966555    0.212150544504423
       600                     0   -458.2975849581385    9.617197824069011    8.328821694014149    50.87419509023129   -12.71422353591521   -22.91189134244403    2.551808187321863  0.06211091101450222   0.2004619920031827
       610                     0   -458.2988243977302    9.616461992713408    8.328500511476584    50.88827973309686    64.09202960866719    6.546195916105846      5.5737108313465  0.05991450209320112   0.1932171585427941
       620                     0   -458.2996593613605    9.617097536031789    8.328086378701032    50.89809840195174   -43.38919538434163    43.08085472673199    3.270553266018255  0.05795276667579644   0.1905043155992253
       630                     0   -458.3005572784011    9.616577348745798    8.328264202268464    50.90845839779263    3.338680451972774   -4.125898811465845    3.096519967026413  0.05608483601383515   0.1839953665290079
       640                     0   -458.3012777812728    9.616183295294714     8.32837361076384     50.9170502057457    37.15149109240813    -37.6519173491648    2.984856397535792  0.05452486885152873   0.1827052545634367
       650                     0   -458.3024000817463    9.615740468840119    8.328399865171113    50.93018756400739    67.89990126166684   -68.17094357458781    2.801552374456261  0.05212140965900086   0.1740956720623429
       660                     0   -458.3030565114063    9.617430822785947    8.326706914570112    50.93863587843646   -167.7953377084373     167.228657480235    2.665205826858854  0.05056003872801664   0.1813447630866926
       670                     0    -458.303520811918    9.615715644549478     8.32805476880036    50.94354649826532    43.74036896676795   -44.09650578641649    2.601669468554194  0.04964642130727118   0.1674624620693533
       680                     0   -458.3040852250945    9.615122754307176    8.328377375909399    50.95047463459542    106.0108851010569   -106.6214517953807    2.492362771658478  0.04835079513692251   0.1666299943083765
       690                     0   -458.3049106843417    9.616067568991255    8.327281781077605    50.96024506712554   -36.44626048816193    36.39485068463259    2.371255962796723  0.04651155107607634   0.1565970121489451
       700                     0   -458.3054690494723    9.616049892351358    8.327099707414101    50.96730448320549   -49.07033975481416     48.5818669313062    2.257871697696947  0.04516693693764239   0.1575221950782812
       710                     0   -458.3065435566623    9.614142023085659    8.328352081856059    50.98126568037083    167.5530627022913   -168.0328444861383    2.097619711366992  0.04248276226249229   0.1612375904427406
       720                     0   -458.3070215294716    9.615676107311003    8.326868692372967    50.98653526151183   -41.97695875901611    41.66099165521793    2.012613771351055  0.04145803152830419   0.1442666653558664
       730                     0   -458.3075228520403    9.615497174306849    8.326840308624273    50.99277900491204   -32.48571484940485    32.22933461688332    1.907702678548167  0.04023367779741082   0.1384928467080084
       740                     0   -458.3080852896191    9.613912172508195    8.327979537163708    51.00065827611457    154.7821110760754   -154.9562227951281    1.871006173429816  0.03866885226268307   0.1483633163464553
       750                     0   -458.3084935593417    9.615315932361876    8.326625603699483    51.00528964249738   -36.75100822018295    36.44996788331114    1.767740240016545  0.03774413919175772   0.1324168325612382
       760                     0   -458.3089197657238    9.615196388801252    8.326562963559143    51.01079152747376   -33.64220716160322    33.41977814244923     1.67201530557123  0.03663613743102671   0.1277231495342708
       770                     0    -458.309475554212    9.615228395107634     8.32631268486668    51.01820283187965   -54.48653638238913    53.92403925839343     1.35462717711966  0.03513663676102262   0.1235722121351612
       780                     0     -458.31054112153     9.61364598877633    8.327216485866199    51.03319268164032    115.4718349870654   -114.9823143232799   0.7537689405795772  0.03206680327412639   0.1208810856700341
       790                     0   -458.3112102854035    9.613643810300999    8.326914945971991    51.04389184420492    92.98729513484872   -92.88742753371625   -4.948305836395086  0.03011085669739355   0.1121761441743362
       800                     0   -458.3115209210945    9.615540254530519     8.32513750205516    51.04632323680695   -161.8682401354191    161.4293462754239    4.914291240695046  0.02902311351708425   0.1208293366779864
       810                     0   -458.3118390250717     9.61410024764643    8.326256118003926    51.05022498802992    14.29721430606882   -14.67127947234623    4.982717882152234  0.02816642293830783   0.1029932814691916
       820                     0   -458.3120623566249    9.613544009743531    8.326633830147314    51.05320789262611    78.16822329660823    -78.7800010613676    6.185985595191824  0.02743863588735469    0.101377239894873
       830                     0   -458.3124124306968    9.614683933456355    8.325449060622834    51.06226741726754   -84.18155651576843    82.14494241800558     -8.8276804536009  0.02629032105868252  0.09957723809100709
       840                     0   -458.3130187614381    9.613718537999361    8.325982868855293    51.06922523450459    18.70903658523743   -18.93838773968059   0.4911928405228973  0.02419037300306554  0.08973955217540711
       850                     0   -458.3134812175323    9.613163402431329    8.326217698915649    51.07566459303077     71.9542467606711     -72.270695630776    4.379447278556536  0.02246703612765587  0.08500787915125009
       860                     0    -458.313720401567    9.613903748400601    8.325403560042107    51.08282916980006   -36.31669370940912    36.05682010551109   -6.979623436453611  0.02148215827008907  0.09078119569372019
       870                     0    -458.313952741002    9.613362261323598    8.325771630846059    51.08320133195073    26.41930531791379   -25.84370992247995     5.19059259864087  0.02064241642869509  0.07516724238820958
       880                     0   -458.3142475179748    9.612455044255936    8.326324525710397    51.09190340368303    125.9953386723196   -125.4732987686407   -5.777763580005898  0.01923851859755261  0.09086838733888143
       890                     0   -458.3144379807343    9.613765203925087    8.325185408442755    51.08560885164093   -45.17272225203789    41.63406196301042    30.18422947853139  0.01846512101388678  0.07270455370695844
       900                     0   -458.3145686736869    9.613677124182548    8.325116324315191    51.09399036368404   -43.61642387574899    42.09438641009878    6.263101087229749  0.01794801484375783  0.06838079634939007
       910                     0   -458.3146766831604    9.612761078922745    8.325821413508052    51.09679025479876    68.13934455431168   -69.03071374145152    3.852900137242455  0.01741413720637362  0.07066797405257634
       920                     0   -458.3147950109944    9.613105885929388    8.325434142216295    51.09940987371628    17.50529725972635   -17.66998554067204    2.261965390356737  0.01686911356513315  0.06721119841182832
       930                     0   -458.3149026738809     9.61374091640946    8.324792578723741    51.10284387001582   -70.91432972878198    71.07836639048141    -2.82929730464799  0.01634281143507947  0.06577417758646179
       940                     0   -458.3150034692858    9.613082530075724    8.325289450607574    51.10487988314491    8.381426417012078   -8.317135569125908   -3.080731213509127  0.01584525051964815  0.06257711793630127
       950                     0   -458.3150976889005     9.61267392196987    8.325577201315156    51.10619041380107    56.04294091400156    -56.0861117248093  -0.6676868701800741  0.01535273765085547  0.06033027062536913
       960                     0   -458.3151847036068     9.61316960489626      8.3250869765519    51.10758745130642   -12.35243733028413      12.232885246744    0.523578246974389  0.01491667012844915   0.0547258121523464
       970                     0    -458.315297023042    9.613143528295193    8.325016028312831     51.1100699894375   -15.93569345774157    15.81071768074829    0.501804895196961  0.01428067083824043  0.05407042148803809
       980                     0   -458.3153639176055     9.61265285986766    8.325383033933404    51.11159819183638    42.95402573034114   -43.05136464910689   0.4657059907996258  0.01388811231628566  0.05372159055427786
       990                     0     -458.31542503482    9.612899788663841    8.325116275938747    51.11298876921206    7.229776808921705   -7.331656463346769    0.446003975140624  0.01352819715870012  0.05272964667624037
      1000                     0   -458.3154834530033    9.613288963595455    8.324727463474812    51.11434195140703   -46.71603644346478    46.61939722704241   0.4322809442094347  0.01317599587826927  0.05144405863238241
      1010                     0   -458.3155375840909    9.612843993878698    8.325063942758385    51.11561372340176    6.947282192722735   -7.039917184796109   0.4200357247429112  0.01284354812461444  0.05019756985498013
      1020                     0   -458.3155938400114    9.612590847986988    8.325231910515805    51.11694209291449    35.74069337454655    -35.8234445239511   0.4066028709091419  0.01249505134537066  0.04809540900760646
      1030                     0   -458.3156455172429    9.612960211004319    8.324863013103576    51.11820974061112   -15.45489170964152    15.36503602167565   0.3934836465403017  0.01216102810126488  0.04679724298356078
      1040                     0   -458.3156985234955    9.613001209760602    8.324776507215676    51.11952206668218   -24.51587132490974    24.42721642226028    0.380689041999046  0.01181370611879944  0.04487669306564498
      1050                     0   -458.3157466686147    9.612620006155497    8.325057645180431    51.12077673434749    20.92830091379059   -21.00484455869529   0.3686565000213609  0.01148036226996138  0.04416214767738013
      1060                     0   -458.3157944054452    9.612594138397252    8.325031130674326    51.12202651462538    20.62715880643121   -20.70554958474534    0.355856960967294  0.01114699905151321  0.04278136003569002
      1070                     0   -458.3158368052747    9.612973875328397    8.324656053167018    51.12320317277086   -31.68506475792999    31.60596000284288   0.3442583273487625  0.01083185057852932  0.04267644831956185
      1080                     0   -458.3158780347574    9.612818508510809    8.324745860012083    51.12433797796655   -15.00722226644098    14.92518405868599   0.3334149576669866  0.01052666423593466   0.0416117997236178
      1090                     0   -458.3159151091437     9.61235632307972    8.325103711990574    51.12540708176596     41.3506560020704   -41.41038882371243   0.3236476698193509  0.01023828869678943   0.0411882090305356
      1100                     0   -458.3159501055792    9.612633034024547    8.324824386387069    51.12640885437295    2.778535797693113    -2.85419270174821   0.3131337619849689 0.009967087817684912  0.04010573714830378
      1110                     0   -458.3159844944471    9.612918170797869    8.324537679644024    51.12740717535581   -36.87049185041106    36.79753133249216   0.3037858776832277 0.009695896185539598  0.03848146480507068
      1120                     0   -458.3160156120133    9.612544809716557    8.324823863967335     51.1283362028425    8.431246537164723   -8.497274151483557   0.2952350205371133  0.00944276692761949  0.03725616973086834
      1130                     0   -458.3160478616796     9.61239730623468    8.324912620862412    51.12930870806695    24.52663941986266   -24.58800081459092   0.2857707411974845 0.009177052262245342  0.03545354354571206
      1140                     0   -458.3160769389362    9.612667539134428    8.324641681514414    51.13022797558375   -12.99506286865111    12.92982495009087   0.2767588169795148 0.008925066798808926  0.03446497075258852
      1150                     0   -458.3161061801641    9.612676290762591    8.324596364588128    51.13116435227919   -16.92029606796909    16.85589788990521   0.2680087303926925 0.008667575385251487  0.03309331331860675
      1160                     0   -458.3163600337797    9.612258082982523    8.324569795824599    51.14094001975308    7.107973493457537   -8.987423448869258   0.1136073193629226 0.005942640715354149  0.02339967808891545
      1170                     0   -458.3164372080569    9.612288604828818    8.324369795182021     51.1447435333991   -7.766259418893792    8.239137528415135   0.1889484517145994 0.004860627665196478  0.01865390456917848
      1180                     0   -458.3164488625789    9.612241360024816    8.324384792338069    51.14546251995232   -5.362302145437502    5.374788788474869   0.0935059906229502 0.004658912367377758  0.01863499340308474
      1190                     0   -458.3164564437673    9.612088954004841    8.324499121293886    51.14584877682031    14.06072745226313   -14.11355806979956   0.1537237306857603 0.004534137579413363  0.01808633243718761
      1200                     0   -458.3164631586035    9.612169633647627    8.324411856025131    51.14627302906128    1.991876971684155   -2.028527296607287   0.1225121804330476 0.004417980832824282   0.0174870951050677
      1210                     0   -458.3164695850004    9.612293717511793    8.324287909190911    51.14665622471187   -15.13124983172829     15.0983007318531   0.1263152542587249 0.004304969029992681  0.01702914112689966
      1220                     0    -458.316475524132    9.612146677421022    8.324399579532162    51.14702451676649    2.634332312701456   -2.663246092868937   0.1224303545105057 0.004197913756424305  0.01661879329181829
      1230                     0   -458.3164817075013     9.61206874932264    8.324450597303906    51.14741106532817    11.43032122978262   -11.45712128920384   0.1189416717932086 0.004085452537564846  0.01592201063530462
      1240                     0   -458.3164873961544    9.612189729867657    8.324330000162545    51.14778252916727   -5.305211517925211    5.276463574320797   0.1157118421584871 0.003977194071145751  0.01550915639552234
      1250                     0    -458.316493221153    9.612201171708044    8.324303638818538    51.14816813639735    -7.99853905380526    7.970186516888462   0.1122832006068024 0.003864756626156947  0.01488533292098171
      1260                     0   -458.3164985077862    9.612073329237319     8.32439851964612    51.14853848905554     7.27589855698811   -7.300979731792753   0.1091888597460545 0.003756668036987001  0.01467140229389656
      1270                     0   -458.3165037440307    9.612067910703896    8.324387410312404    51.14890817927491    6.800788156616153   -6.825703116363032   0.1058892671278842 0.003648694448867199  0.01422219791347901
      1280                     0   -458.3165083879379    9.612197892644502    8.324259914439528    51.14925731521943   -11.02867828353176    11.00255664265149   0.1028046678621952  0.00354662673572494  0.01419220805829595
      1290                     0   -458.3165128941433    9.612140102370709    8.324295528778793    51.14959428659578   -4.664463615525898     4.63901735354209  0.09990786933870446 0.003448040269860507  0.01383897519910083
      1300                     0   -458.3165169728542    9.611987967594011    8.324413554854038    51.14991402734139    13.89116711634754   -13.91200129354585  0.09725678580880587 0.003354448404520538   0.0136555412955141
      1310                     0    -458.316520802031    9.612085031352761    8.324316652149221     51.1502137972351   0.4504818943813858  -0.4738987710866583  0.09452434819282059 0.003266625346553423  0.01328188789519948
      1320                     0   -458.3165245990373    9.612173450988628    8.324227117280721      51.150515834789   -11.88542219880672    11.86151658284986  0.09189049438225905 0.003178076468613926  0.01271126780200121
      1330                     0   -458.3165280276762    9.612050265797787    8.324321655424447    51.15079818633009     3.06187170306355   -3.083181793247802  0.08952592078220394 0.003095258213750988  0.01230142512318259
      1340                     0   -458.3165315754503    9.612006293122615    8.324346995418749    51.15109444112982    7.774225927487746   -7.794248780325402  0.08695464808393256 0.003008311733762149  0.01170953073457141
      1350                     0   -458.3165896500104    9.611897709020205     8.32405305324666    51.16006444888323   -7.067016020126303    6.972306172212322 0.005835988490595894 0.0005447442739755504 0.004302889559603367
      1360                     0   -458.3165901022975     9.61180150894252     8.32412753027389    51.16024692292302    4.663262620640012   -4.673237636832316 0.003326591398804766 0.0004454847692181871 0.002509278391750604
      1370                     0   -458.3165902196784    9.611838330400582    8.324093305884785    51.16028729315398  -0.2122484252223811   0.2092923825592655   0.0116801975547063 0.0002879317439175836 0.001238734897408166
      1380                     0    -458.316590251932    9.611841411275593    8.324089240613588    51.16031803789028  -0.7140690851390035   0.7122890823688457 0.005235906124978608 0.0002836670923976998 0.001119696324089555
      1390                     0   -458.3165902807798    9.611831582397077    8.324096732953576     51.1603376162487   0.4723948765729969  -0.4740991410123059 0.006612056692614621 0.0002760229230614072 0.001099195660740569
      1400                     0   -458.3165903101161    9.611830103636382    8.324096927849279    51.16036012686195   0.5831807271995773  -0.5849263303616655 0.006815018836928588 0.0002680907576608555 0.001060152998414651
      1410                     0    -458.316590336323    9.611839794078209    8.324087455897342    51.16038296901097    -0.74380411189197   0.7419326125846767 0.006719418001687897 0.0002606752411127279 0.001057098849985242
      1420                     0   -458.3165903622722    9.611836855533436    8.324088936750757    51.16040569600843  -0.4446095508283359   0.4428265513619398 0.006483614253610892 0.0002533089007694445 0.001026414279288416
      1430                     0   -458.3165903852297    9.611824922237654    8.324098268171401    51.16042711361794    1.015757263545266   -1.017287584446833 0.006409807138761307 0.0002463770809091962 0.001019843563107107
      1440                     0   -458.3165904071581    9.611831084696128    8.324091980082722    51.16044760621896   0.1525799188287485   -0.154194782299927 0.006237970830368268 0.0002397954942036562 0.0009914380747143171
      1450                     0    -458.316590428135    9.611839289862921     8.32408393970729    51.16046778705265  -0.9721036339890755   0.9703774779625615  0.00610496084010907 0.0002333313083449428 0.0009545526649537316
      1460                     0   -458.3165904471122    9.611830005356179    8.324091110150698    51.16048660897539   0.1575023197574529  -0.1590334795395151 0.005972381102039351 0.0002273264760606324 0.0009230699356548988
      1470                     0   -458.3165904666743    9.611825502978453    8.324094098171605    51.16050637900015   0.6689965120511019  -0.6704142203435971 0.005831681653257665 0.0002210359015670122 0.0008766283524584685
      1480                     0   -458.3165904841973    9.611832523716137    8.324087160712295    51.16052505070909   -0.297619620449772   0.2961051881934765 0.005691352904637241 0.0002151098929309783 0.0008489488242616103
      1490                     0   -458.3165905018981    9.611833077291683    8.324085796733575    51.16054434592343  -0.4344501950294948    0.432956381648452 0.005546933155001646 0.0002090023256556419 0.0008123854343895567
      1500                     0   -458.3165905177931    9.611826246679891    8.324090868975928    51.16056276087055   0.3815360765172589  -0.3828766083694531 0.005413851085934639 0.0002031875559431111 0.0007982152695413731
      1510                     0   -458.3165905334127    9.611825904924984     8.32409032632618    51.16058112563607   0.3632704660409417  -0.3645766758221436 0.005275027625459312 0.0001974018689202095 0.0007730652448049976
      1520                     0   -458.3165905472401    9.611832715834842    8.324083636441404    51.16059850443035  -0.5714671078648752    0.570067795859809 0.005139155243280949 0.0001919383551653784 0.0007705432118119141
      1530                     0   -458.3165905606405    9.611829875589477    8.324085329286664    51.16061535076594  -0.2630563226510387   0.2617325358406548 0.005011928193564882 0.0001866537426378915 0.0007516023238346671
      1536                     0   -458.3165905665072    9.611828312172426    8.324086397690134    51.16062162910296  -0.0831569545455899  0.08187148852219019 0.004964657686254766 0.0001846870507859838 0.0006910483791255741
Loop time of 1.13015 on 1 procs for 1536 steps with 62 atoms

83.4% CPU use with 1 MPI tasks x no OpenMP threads

Minimization stats:
  Stopping criterion = force tolerance
  Energy initial, next-to-last, final = 
     -456.845677932378  -458.316590565651  -458.316590566507
  Force two-norm initial, final = 87.002578 0.00076348135
  Force max component initial, final = 61.280588 0.00021651402
  Final line search alpha, max atom move = 0.065759874 1.4237935e-05
  Iterations, force evaluations = 1536 2234

MPI task timing breakdown:
Section |  min time  |  avg time  |  max time  |%varavg| %total
---------------------------------------------------------------
Pair    | 0.95894    | 0.95894    | 0.95894    |   0.0 | 84.85
Neigh   | 0          | 0          | 0          |   0.0 |  0.00
Comm    | 0.0041838  | 0.0041838  | 0.0041838  |   0.0 |  0.37
Output  | 0.15462    | 0.15462    | 0.15462    |   0.0 | 13.68
Modify  | 0          | 0          | 0          |   0.0 |  0.00
Other   |            | 0.0124     |            |       |  1.10

Nlocal:             62 ave          62 max          62 min
Histogram: 1 0 0 0 0 0 0 0 0 0
Nghost:            882 ave         882 max         882 min
Histogram: 1 0 0 0 0 0 0 0 0 0
Neighs:              0 ave           0 max           0 min
Histogram: 1 0 0 0 0 0 0 0 0 0
FullNghs:        20654 ave       20654 max       20654 min
Histogram: 1 0 0 0 0 0 0 0 0 0

Total # of neighbors = 20654
Ave neighs/atom = 333.12903
Neighbor list builds = 0
Dangerous builds = 0

# Minimize the with fire
  unfix           frb
  min_style       fire
  minimize        0.0 1.0e-3 10000 10000
  Parameters for fire:
    dmax  delaystep dtgrow dtshrink alpha0 alphashrink tmax tmin   integrator   halfstepback   abcfire  
     0.1     20      1.1     0.5     0.25     0.99      10  0.02 eulerimplicit      yes          no     
Per MPI rank memory allocation (min/avg/max) = 3.919 | 3.919 | 3.919 Mbytes
   Step          Temp          PotEng           Lx             Ly             Lz            Pxx            Pyy            Pzz            Fmax          Fnorm     
      1536                     0   -458.3165905665073    9.611828312172426    8.324086397690134    51.16062162910296 -0.08315695457963698   0.0818714887274085 0.004964657706355529 0.0001846870508091596 0.0006910483791335873
      1537  2.432621789750436e-08   -458.3165905668904    9.611828312172426    8.324086397690134    51.16062162910296 -0.08237723079738549  0.07789464354464179  0.00670461844560607 0.0001845175496563721 0.0006901699977705913
Loop time of 0.00223906 on 1 procs for 1 steps with 62 atoms

53.1% CPU use with 1 MPI tasks x no OpenMP threads

Minimization stats:
  Stopping criterion = force tolerance
  Energy initial, next-to-last, final = 
     -458.316590566507  -458.316590566507   -458.31659056689
  Force two-norm initial, final = 0.00069104838 0.00069017
  Force max component initial, final = 0.00018468705 0.00018451755
  Final line search alpha, max atom move = 0 0
  Iterations, force evaluations = 1 2

MPI task timing breakdown:
Section |  min time  |  avg time  |  max time  |%varavg| %total
---------------------------------------------------------------
Pair    | 0.0018346  | 0.0018346  | 0.0018346  |   0.0 | 81.93
Neigh   | 0          | 0          | 0          |   0.0 |  0.00
Comm    | 8.572e-06  | 8.572e-06  | 8.572e-06  |   0.0 |  0.38
Output  | 0          | 0          | 0          |   0.0 |  0.00
Modify  | 0          | 0          | 0          |   0.0 |  0.00
Other   |            | 0.0003959  |            |       | 17.68

Nlocal:             62 ave          62 max          62 min
Histogram: 1 0 0 0 0 0 0 0 0 0
Nghost:            882 ave         882 max         882 min
Histogram: 1 0 0 0 0 0 0 0 0 0
Neighs:              0 ave           0 max           0 min
Histogram: 1 0 0 0 0 0 0 0 0 0
FullNghs:        21398 ave       21398 max       21398 min
Histogram: 1 0 0 0 0 0 0 0 0 0

Total # of neighbors = 21398
Ave neighs/atom = 345.12903
Neighbor list builds = 0
Dangerous builds = 0

next nr
jump ${simname}.in loopmin
jump AIREBO.in loopmin

# Minimize the with cg + box/relax
  fix             frb all box/relax tri 0.0 couple none
  min_style       cg
  min_modify      line quadratic
  minimize        0.0 1.0e-3 10000 10000
WARNING: Energy due to 6 extra global DOFs will be included in minimizer energies
 (src/min.cpp:225)
Per MPI rank memory allocation (min/avg/max) = 5.044 | 5.044 | 5.044 Mbytes
   Step          Temp          PotEng           Lx             Ly             Lz            Pxx            Pyy            Pzz            Fmax          Fnorm     
      1537  2.432621789750436e-08   -458.3165905668902    9.611828312172426    8.324086397690134    51.16062162910296 -0.08237723060591635  0.07789464372581247 0.006704618422115353 0.0001845175497137431 0.0006901699977591311
      1540  2.432621789750436e-08   -458.3165907020014     9.61183426772231    8.324060581879861    51.16110804343991   -2.287443832202876      2.7559773361009  -0.4129680730117937 0.000338946943364166  0.00229461314756369
      1545  2.432621789750436e-08   -458.3165907906056    9.611813238901711     8.32407421565048    51.16119389219853  -0.1628189007668482   0.1633450647766999 -0.07609867522094105 4.173768820556201e-05 0.0002549941444210448
Loop time of 0.00805622 on 1 procs for 8 steps with 62 atoms

91.6% CPU use with 1 MPI tasks x no OpenMP threads

Minimization stats:
  Stopping criterion = force tolerance
  Energy initial, next-to-last, final = 
      -458.31659056689  -458.316590790239  -458.316590790606
  Force two-norm initial, final = 0.00075645777 0.00073245377
  Force max component initial, final = 0.00021046275 0.00041732868
  Final line search alpha, max atom move = 0.11506058 4.8018082e-05
  Iterations, force evaluations = 8 16

MPI task timing breakdown:
Section |  min time  |  avg time  |  max time  |%varavg| %total
---------------------------------------------------------------
Pair    | 0.0071313  | 0.0071313  | 0.0071313  |   0.0 | 88.52
Neigh   | 0          | 0          | 0          |   0.0 |  0.00
Comm    | 2.8508e-05 | 2.8508e-05 | 2.8508e-05 |   0.0 |  0.35
Output  | 0.00039658 | 0.00039658 | 0.00039658 |   0.0 |  4.92
Modify  | 0          | 0          | 0          |   0.0 |  0.00
Other   |            | 0.0004998  |            |       |  6.20

Nlocal:             62 ave          62 max          62 min
Histogram: 1 0 0 0 0 0 0 0 0 0
Nghost:            882 ave         882 max         882 min
Histogram: 1 0 0 0 0 0 0 0 0 0
Neighs:              0 ave           0 max           0 min
Histogram: 1 0 0 0 0 0 0 0 0 0
FullNghs:        21398 ave       21398 max       21398 min
Histogram: 1 0 0 0 0 0 0 0 0 0

Total # of neighbors = 21398
Ave neighs/atom = 345.12903
Neighbor list builds = 0
Dangerous builds = 0

# Minimize the with fire
  unfix           frb
  min_style       fire
  minimize        0.0 1.0e-3 10000 10000
  Parameters for fire:
    dmax  delaystep dtgrow dtshrink alpha0 alphashrink tmax tmin   integrator   halfstepback   abcfire  
     0.1     20      1.1     0.5     0.25     0.99      10  0.02 eulerimplicit      yes          no     
Per MPI rank memory allocation (min/avg/max) = 3.919 | 3.919 | 3.919 Mbytes
   Step          Temp          PotEng           Lx             Ly             Lz            Pxx            Pyy            Pzz            Fmax          Fnorm     
      1545                     0   -458.3165907906053    9.611813238901711     8.32407421565048    51.16119389219853  -0.1628189022915232   0.1633450627289614 -0.07609882122999809 4.173768814616508e-05 0.000254994144143631
      1546  3.312211811310442e-09    -458.316590790658    9.611813238901711     8.32407421565048    51.16119389219853  -0.1458689376922247   0.1453379957492179 -0.07447329465445184 3.679714220675145e-05 0.0002269300658136307
Loop time of 0.00700229 on 1 procs for 1 steps with 62 atoms

14.5% CPU use with 1 MPI tasks x no OpenMP threads

Minimization stats:
  Stopping criterion = force tolerance
  Energy initial, next-to-last, final = 
     -458.316590790605  -458.316590790605  -458.316590790658
  Force two-norm initial, final = 0.00025499414 0.00022693007
  Force max component initial, final = 4.1737688e-05 3.6797142e-05
  Final line search alpha, max atom move = 0 0
  Iterations, force evaluations = 1 2

MPI task timing breakdown:
Section |  min time  |  avg time  |  max time  |%varavg| %total
---------------------------------------------------------------
Pair    | 0.001355   | 0.001355   | 0.001355   |   0.0 | 19.35
Neigh   | 0          | 0          | 0          |   0.0 |  0.00
Comm    | 7.619e-06  | 7.619e-06  | 7.619e-06  |   0.0 |  0.11
Output  | 0          | 0          | 0          |   0.0 |  0.00
Modify  | 0          | 0          | 0          |   0.0 |  0.00
Other   |            | 0.00564    |            |       | 80.54

Nlocal:             62 ave          62 max          62 min
Histogram: 1 0 0 0 0 0 0 0 0 0
Nghost:            882 ave         882 max         882 min
Histogram: 1 0 0 0 0 0 0 0 0 0
Neighs:              0 ave           0 max           0 min
Histogram: 1 0 0 0 0 0 0 0 0 0
FullNghs:        21398 ave       21398 max       21398 min
Histogram: 1 0 0 0 0 0 0 0 0 0

Total # of neighbors = 21398
Ave neighs/atom = 345.12903
Neighbor list builds = 0
Dangerous builds = 0

next nr
jump ${simname}.in loopmin
jump AIREBO.in loopmin

# Minimize the with cg + box/relax
  fix             frb all box/relax tri 0.0 couple none
  min_style       cg
  min_modify      line quadratic
  minimize        0.0 1.0e-3 10000 10000
WARNING: Energy due to 6 extra global DOFs will be included in minimizer energies
 (src/min.cpp:225)
Per MPI rank memory allocation (min/avg/max) = 5.044 | 5.044 | 5.044 Mbytes
   Step          Temp          PotEng           Lx             Ly             Lz            Pxx            Pyy            Pzz            Fmax          Fnorm     
      1546  3.312211811310442e-09   -458.3165907906581    9.611813238901711     8.32407421565048    51.16119389219853  -0.1458689376620231   0.1453379956622823 -0.07447329477475667 3.679714220358732e-05 0.000226930065800232
      1547  3.312211811310442e-09   -458.3165907907387    9.611811658927028     8.32407557896807    51.16118959858224  0.06701406892362011 -0.05996841195995001 -0.05751958018400399 2.192488218204225e-05 0.0001466154094346335
Loop time of 0.00187891 on 1 procs for 1 steps with 62 atoms

80.3% CPU use with 1 MPI tasks x no OpenMP threads

Minimization stats:
  Stopping criterion = force tolerance
  Energy initial, next-to-last, final = 
     -458.316590790658  -458.316590790658  -458.316590790739
  Force two-norm initial, final = 0.00067515949 0.00036848629
  Force max component initial, final = 0.00037267856 0.00019975465
  Final line search alpha, max atom move = 0.26832775 5.3599718e-05
  Iterations, force evaluations = 1 2

MPI task timing breakdown:
Section |  min time  |  avg time  |  max time  |%varavg| %total
---------------------------------------------------------------
Pair    | 0.0013895  | 0.0013895  | 0.0013895  |   0.0 | 73.95
Neigh   | 0          | 0          | 0          |   0.0 |  0.00
Comm    | 6.431e-06  | 6.431e-06  | 6.431e-06  |   0.0 |  0.34
Output  | 0          | 0          | 0          |   0.0 |  0.00
Modify  | 0          | 0          | 0          |   0.0 |  0.00
Other   |            | 0.0004829  |            |       | 25.70

Nlocal:             62 ave          62 max          62 min
Histogram: 1 0 0 0 0 0 0 0 0 0
Nghost:            882 ave         882 max         882 min
Histogram: 1 0 0 0 0 0 0 0 0 0
Neighs:              0 ave           0 max           0 min
Histogram: 1 0 0 0 0 0 0 0 0 0
FullNghs:        21398 ave       21398 max       21398 min
Histogram: 1 0 0 0 0 0 0 0 0 0

Total # of neighbors = 21398
Ave neighs/atom = 345.12903
Neighbor list builds = 0
Dangerous builds = 0

# Minimize the with fire
  unfix           frb
  min_style       fire
  minimize        0.0 1.0e-3 10000 10000
  Parameters for fire:
    dmax  delaystep dtgrow dtshrink alpha0 alphashrink tmax tmin   integrator   halfstepback   abcfire  
     0.1     20      1.1     0.5     0.25     0.99      10  0.02 eulerimplicit      yes          no     
Per MPI rank memory allocation (min/avg/max) = 3.919 | 3.919 | 3.919 Mbytes
   Step          Temp          PotEng           Lx             Ly             Lz            Pxx            Pyy            Pzz            Fmax          Fnorm     
      1547                     0   -458.3165907907388    9.611811658927028     8.32407557896807    51.16118959858224  0.06701406803344621 -0.05996843007646706 -0.05751958196246362 2.192488222825528e-05 0.0001466154094125847
      1548  1.09500706761158e-09   -458.3165907907563    9.611811658927028     8.32407557896807    51.16118959858224  0.07549441243127093 -0.06923437650500024  -0.0563169783162604 1.933849530802445e-05 0.0001319231701239238
Loop time of 0.00176164 on 1 procs for 1 steps with 62 atoms

83.1% CPU use with 1 MPI tasks x no OpenMP threads

Minimization stats:
  Stopping criterion = force tolerance
  Energy initial, next-to-last, final = 
     -458.316590790739  -458.316590790739  -458.316590790756
  Force two-norm initial, final = 0.00014661541 0.00013192317
  Force max component initial, final = 2.1924882e-05 1.9338495e-05
  Final line search alpha, max atom move = 0 0
  Iterations, force evaluations = 1 2

MPI task timing breakdown:
Section |  min time  |  avg time  |  max time  |%varavg| %total
---------------------------------------------------------------
Pair    | 0.001365   | 0.001365   | 0.001365   |   0.0 | 77.48
Neigh   | 0          | 0          | 0          |   0.0 |  0.00
Comm    | 7.677e-06  | 7.677e-06  | 7.677e-06  |   0.0 |  0.44
Output  | 0          | 0          | 0          |   0.0 |  0.00
Modify  | 0          | 0          | 0          |   0.0 |  0.00
Other   |            | 0.000389   |            |       | 22.08

Nlocal:             62 ave          62 max          62 min
Histogram: 1 0 0 0 0 0 0 0 0 0
Nghost:            882 ave         882 max         882 min
Histogram: 1 0 0 0 0 0 0 0 0 0
Neighs:              0 ave           0 max           0 min
Histogram: 1 0 0 0 0 0 0 0 0 0
FullNghs:        21398 ave       21398 max       21398 min
Histogram: 1 0 0 0 0 0 0 0 0 0

Total # of neighbors = 21398
Ave neighs/atom = 345.12903
Neighbor list builds = 0
Dangerous builds = 0

next nr
jump ${simname}.in loopmin
jump AIREBO.in loopmin

# Minimize the with cg + box/relax
  fix             frb all box/relax tri 0.0 couple none
  min_style       cg
  min_modify      line quadratic
  minimize        0.0 1.0e-3 10000 10000
WARNING: Energy due to 6 extra global DOFs will be included in minimizer energies
 (src/min.cpp:225)
Per MPI rank memory allocation (min/avg/max) = 5.044 | 5.044 | 5.044 Mbytes
   Step          Temp          PotEng           Lx             Ly             Lz            Pxx            Pyy            Pzz            Fmax          Fnorm     
      1548  1.09500706761158e-09   -458.3165907907564    9.611811658927028     8.32407557896807    51.16118959858224  0.07549441222303066 -0.06923437657161748 -0.05631697824675305 1.933849529210663e-05 0.0001319231701127058
      1549  1.09500706761158e-09   -458.3165907907891    9.611812488066619    8.324074920453441    51.16118630637183 -0.02400190417712531  0.02474809410915435 -0.04365603501995804 2.431188215862301e-05 0.0001684861012539688
Loop time of 0.00166463 on 1 procs for 1 steps with 62 atoms

88.4% CPU use with 1 MPI tasks x no OpenMP threads

Minimization stats:
  Stopping criterion = force tolerance
  Energy initial, next-to-last, final = 
     -458.316590790756  -458.316590790756  -458.316590790789
  Force two-norm initial, final = 0.00038790961 0.00023147792
  Force max component initial, final = 0.00020946716 0.0001115362
  Final line search alpha, max atom move = 0.47740181 5.3247585e-05
  Iterations, force evaluations = 1 2

MPI task timing breakdown:
Section |  min time  |  avg time  |  max time  |%varavg| %total
---------------------------------------------------------------
Pair    | 0.0013384  | 0.0013384  | 0.0013384  |   0.0 | 80.40
Neigh   | 0          | 0          | 0          |   0.0 |  0.00
Comm    | 7.106e-06  | 7.106e-06  | 7.106e-06  |   0.0 |  0.43
Output  | 0          | 0          | 0          |   0.0 |  0.00
Modify  | 0          | 0          | 0          |   0.0 |  0.00
Other   |            | 0.0003191  |            |       | 19.17

Nlocal:             62 ave          62 max          62 min
Histogram: 1 0 0 0 0 0 0 0 0 0
Nghost:            882 ave         882 max         882 min
Histogram: 1 0 0 0 0 0 0 0 0 0
Neighs:              0 ave           0 max           0 min
Histogram: 1 0 0 0 0 0 0 0 0 0
FullNghs:        21398 ave       21398 max       21398 min
Histogram: 1 0 0 0 0 0 0 0 0 0

Total # of neighbors = 21398
Ave neighs/atom = 345.12903
Neighbor list builds = 0
Dangerous builds = 0

# Minimize the with fire
  unfix           frb
  min_style       fire
  minimize        0.0 1.0e-3 10000 10000
  Parameters for fire:
    dmax  delaystep dtgrow dtshrink alpha0 alphashrink tmax tmin   integrator   halfstepback   abcfire  
     0.1     20      1.1     0.5     0.25     0.99      10  0.02 eulerimplicit      yes          no     
Per MPI rank memory allocation (min/avg/max) = 3.919 | 3.919 | 3.919 Mbytes
   Step          Temp          PotEng           Lx             Ly             Lz            Pxx            Pyy            Pzz            Fmax          Fnorm     
      1549                     0   -458.3165907907891    9.611812488066619    8.324074920453441    51.16118630637183 -0.02400190485694517  0.02474808932390871 -0.04365603614362809 2.431188224430447e-05 0.0001684861010731166
      1550  1.446058449812523e-09    -458.316590790808    9.611812488066619    8.324074920453441    51.16118630637183 -0.01415959254496648  0.01433341190520229 -0.04277390067957712 2.143144230302985e-05 0.0001505988841937508
Loop time of 0.00165501 on 1 procs for 1 steps with 62 atoms

83.4% CPU use with 1 MPI tasks x no OpenMP threads

Minimization stats:
  Stopping criterion = force tolerance
  Energy initial, next-to-last, final = 
     -458.316590790789  -458.316590790789  -458.316590790808
  Force two-norm initial, final = 0.0001684861 0.00015059888
  Force max component initial, final = 2.4311882e-05 2.1431442e-05
  Final line search alpha, max atom move = 0 0
  Iterations, force evaluations = 1 2

MPI task timing breakdown:
Section |  min time  |  avg time  |  max time  |%varavg| %total
---------------------------------------------------------------
Pair    | 0.0012777  | 0.0012777  | 0.0012777  |   0.0 | 77.20
Neigh   | 0          | 0          | 0          |   0.0 |  0.00
Comm    | 5.699e-06  | 5.699e-06  | 5.699e-06  |   0.0 |  0.34
Output  | 0          | 0          | 0          |   0.0 |  0.00
Modify  | 0          | 0          | 0          |   0.0 |  0.00
Other   |            | 0.0003716  |            |       | 22.45

Nlocal:             62 ave          62 max          62 min
Histogram: 1 0 0 0 0 0 0 0 0 0
Nghost:            882 ave         882 max         882 min
Histogram: 1 0 0 0 0 0 0 0 0 0
Neighs:              0 ave           0 max           0 min
Histogram: 1 0 0 0 0 0 0 0 0 0
FullNghs:        21398 ave       21398 max       21398 min
Histogram: 1 0 0 0 0 0 0 0 0 0

Total # of neighbors = 21398
Ave neighs/atom = 345.12903
Neighbor list builds = 0
Dangerous builds = 0

next nr
jump ${simname}.in loopmin
jump AIREBO.in loopmin

# Minimize the with cg + box/relax
  fix             frb all box/relax tri 0.0 couple none
  min_style       cg
  min_modify      line quadratic
  minimize        0.0 1.0e-3 10000 10000
WARNING: Energy due to 6 extra global DOFs will be included in minimizer energies
 (src/min.cpp:225)
Per MPI rank memory allocation (min/avg/max) = 5.044 | 5.044 | 5.044 Mbytes
   Step          Temp          PotEng           Lx             Ly             Lz            Pxx            Pyy            Pzz            Fmax          Fnorm     
      1550  1.446058449812523e-09    -458.316590790808    9.611812488066619    8.324074920453441    51.16118630637183 -0.01415959226419033  0.01433341231889182 -0.04277390071502893 2.143144230898342e-05 0.0001505988841649915
      1551  1.446058449812523e-09   -458.3165907908387    9.611812055111141     8.32407530000653    51.16117934481109  0.06014434331464274 -0.04991689630703776 -0.01541019855366922 1.413489725747563e-05 9.864476391939581e-05
Loop time of 0.00170299 on 1 procs for 1 steps with 62 atoms

83.8% CPU use with 1 MPI tasks x no OpenMP threads

Minimization stats:
  Stopping criterion = force tolerance
  Energy initial, next-to-last, final = 
     -458.316590790808  -458.316590790808  -458.316590790839
  Force two-norm initial, final = 0.00020067656 0.00027472474
  Force max component initial, final = 0.00010928244 0.00015593714
  Final line search alpha, max atom move = 0.91506009 0.00014269185
  Iterations, force evaluations = 1 2

MPI task timing breakdown:
Section |  min time  |  avg time  |  max time  |%varavg| %total
---------------------------------------------------------------
Pair    | 0.0013198  | 0.0013198  | 0.0013198  |   0.0 | 77.50
Neigh   | 0          | 0          | 0          |   0.0 |  0.00
Comm    | 7.386e-06  | 7.386e-06  | 7.386e-06  |   0.0 |  0.43
Output  | 0          | 0          | 0          |   0.0 |  0.00
Modify  | 0          | 0          | 0          |   0.0 |  0.00
Other   |            | 0.0003758  |            |       | 22.07

Nlocal:             62 ave          62 max          62 min
Histogram: 1 0 0 0 0 0 0 0 0 0
Nghost:            882 ave         882 max         882 min
Histogram: 1 0 0 0 0 0 0 0 0 0
Neighs:              0 ave           0 max           0 min
Histogram: 1 0 0 0 0 0 0 0 0 0
FullNghs:        21398 ave       21398 max       21398 min
Histogram: 1 0 0 0 0 0 0 0 0 0

Total # of neighbors = 21398
Ave neighs/atom = 345.12903
Neighbor list builds = 0
Dangerous builds = 0

# Minimize the with fire
  unfix           frb
  min_style       fire
  minimize        0.0 1.0e-3 10000 10000
  Parameters for fire:
    dmax  delaystep dtgrow dtshrink alpha0 alphashrink tmax tmin   integrator   halfstepback   abcfire  
     0.1     20      1.1     0.5     0.25     0.99      10  0.02 eulerimplicit      yes          no     
Per MPI rank memory allocation (min/avg/max) = 3.919 | 3.919 | 3.919 Mbytes
   Step          Temp          PotEng           Lx             Ly             Lz            Pxx            Pyy            Pzz            Fmax          Fnorm     
      1551                     0   -458.3165907908387    9.611812055111141     8.32407530000653    51.16117934481109  0.06014434130787844 -0.04991690253743645 -0.01541019938548136 1.41348972638039e-05 9.864476399477882e-05
      1552  4.95684985032062e-10   -458.3165907908461    9.611812055111141     8.32407530000653    51.16117934481109  0.06581726473422161 -0.05580613265556159 -0.01510959627553695 1.246074339088243e-05 8.958784479592529e-05
Loop time of 0.00164266 on 1 procs for 1 steps with 62 atoms

83.2% CPU use with 1 MPI tasks x no OpenMP threads

Minimization stats:
  Stopping criterion = force tolerance
  Energy initial, next-to-last, final = 
     -458.316590790839  -458.316590790839  -458.316590790846
  Force two-norm initial, final = 9.8644764e-05 8.9587845e-05
  Force max component initial, final = 1.4134897e-05 1.2460743e-05
  Final line search alpha, max atom move = 0 0
  Iterations, force evaluations = 1 2

MPI task timing breakdown:
Section |  min time  |  avg time  |  max time  |%varavg| %total
---------------------------------------------------------------
Pair    | 0.0012834  | 0.0012834  | 0.0012834  |   0.0 | 78.13
Neigh   | 0          | 0          | 0          |   0.0 |  0.00
Comm    | 6.858e-06  | 6.858e-06  | 6.858e-06  |   0.0 |  0.42
Output  | 0          | 0          | 0          |   0.0 |  0.00
Modify  | 0          | 0          | 0          |   0.0 |  0.00
Other   |            | 0.0003524  |            |       | 21.45

Nlocal:             62 ave          62 max          62 min
Histogram: 1 0 0 0 0 0 0 0 0 0
Nghost:            882 ave         882 max         882 min
Histogram: 1 0 0 0 0 0 0 0 0 0
Neighs:              0 ave           0 max           0 min
Histogram: 1 0 0 0 0 0 0 0 0 0
FullNghs:        21398 ave       21398 max       21398 min
Histogram: 1 0 0 0 0 0 0 0 0 0

Total # of neighbors = 21398
Ave neighs/atom = 345.12903
Neighbor list builds = 0
Dangerous builds = 0

next nr
jump ${simname}.in loopmin
jump AIREBO.in loopmin

# Minimize the with cg + box/relax
  fix             frb all box/relax tri 0.0 couple none
  min_style       cg
  min_modify      line quadratic
  minimize        0.0 1.0e-3 10000 10000
WARNING: Energy due to 6 extra global DOFs will be included in minimizer energies
 (src/min.cpp:225)
Per MPI rank memory allocation (min/avg/max) = 5.044 | 5.044 | 5.044 Mbytes
   Step          Temp          PotEng           Lx             Ly             Lz            Pxx            Pyy            Pzz            Fmax          Fnorm     
      1552  4.95684985032062e-10    -458.316590790846    9.611812055111141     8.32407530000653    51.16117934481109  0.06581726472117884 -0.05580613276339299 -0.01510959623410664 1.246074334920744e-05 8.958784482957531e-05
      1553  4.95684985032062e-10   -458.3165907908615    9.611812664739618    8.324074852357043    51.16117859988433  -0.0100402929028084 0.006845876424945101  -0.0125933609829595 1.617343230514434e-05 0.0001162301444335033
Loop time of 0.00258724 on 1 procs for 1 steps with 62 atoms

82.9% CPU use with 1 MPI tasks x no OpenMP threads

Minimization stats:
  Stopping criterion = force tolerance
  Energy initial, next-to-last, final = 
     -458.316590790846  -458.316590790846  -458.316590790861
  Force two-norm initial, final = 0.00029056767 0.0001277879
  Force max component initial, final = 0.00016815558 3.2174599e-05
  Final line search alpha, max atom move = 0.59468737 1.9133827e-05
  Iterations, force evaluations = 1 2

MPI task timing breakdown:
Section |  min time  |  avg time  |  max time  |%varavg| %total
---------------------------------------------------------------
Pair    | 0.0019744  | 0.0019744  | 0.0019744  |   0.0 | 76.31
Neigh   | 0          | 0          | 0          |   0.0 |  0.00
Comm    | 1.2415e-05 | 1.2415e-05 | 1.2415e-05 |   0.0 |  0.48
Output  | 0          | 0          | 0          |   0.0 |  0.00
Modify  | 0          | 0          | 0          |   0.0 |  0.00
Other   |            | 0.0006005  |            |       | 23.21

Nlocal:             62 ave          62 max          62 min
Histogram: 1 0 0 0 0 0 0 0 0 0
Nghost:            882 ave         882 max         882 min
Histogram: 1 0 0 0 0 0 0 0 0 0
Neighs:              0 ave           0 max           0 min
Histogram: 1 0 0 0 0 0 0 0 0 0
FullNghs:        21398 ave       21398 max       21398 min
Histogram: 1 0 0 0 0 0 0 0 0 0

Total # of neighbors = 21398
Ave neighs/atom = 345.12903
Neighbor list builds = 0
Dangerous builds = 0

# Minimize the with fire
  unfix           frb
  min_style       fire
  minimize        0.0 1.0e-3 10000 10000
  Parameters for fire:
    dmax  delaystep dtgrow dtshrink alpha0 alphashrink tmax tmin   integrator   halfstepback   abcfire  
     0.1     20      1.1     0.5     0.25     0.99      10  0.02 eulerimplicit      yes          no     
Per MPI rank memory allocation (min/avg/max) = 3.919 | 3.919 | 3.919 Mbytes
   Step          Temp          PotEng           Lx             Ly             Lz            Pxx            Pyy            Pzz            Fmax          Fnorm     
      1553                     0   -458.3165907908615    9.611812664739618    8.324074852357043    51.16117859988433 -0.01004029338003439 0.006845874221832165 -0.01259336135593671 1.617343219453837e-05 0.0001162301442105381
      1554  6.881692149175099e-10   -458.3165907908682    9.611812664739618    8.324074852357043    51.16117859988433 -0.003312830586037815 -5.299675661088134e-05  -0.0123522470022307 1.425207423488839e-05 0.0001046574220954947
Loop time of 0.00181919 on 1 procs for 1 steps with 62 atoms

79.9% CPU use with 1 MPI tasks x no OpenMP threads

Minimization stats:
  Stopping criterion = force tolerance
  Energy initial, next-to-last, final = 
     -458.316590790861  -458.316590790861  -458.316590790868
  Force two-norm initial, final = 0.00011623014 0.00010465742
  Force max component initial, final = 1.6173432e-05 1.4252074e-05
  Final line search alpha, max atom move = 0 0
  Iterations, force evaluations = 1 2

MPI task timing breakdown:
Section |  min time  |  avg time  |  max time  |%varavg| %total
---------------------------------------------------------------
Pair    | 0.0013604  | 0.0013604  | 0.0013604  |   0.0 | 74.78
Neigh   | 0          | 0          | 0          |   0.0 |  0.00
Comm    | 6.896e-06  | 6.896e-06  | 6.896e-06  |   0.0 |  0.38
Output  | 0          | 0          | 0          |   0.0 |  0.00
Modify  | 0          | 0          | 0          |   0.0 |  0.00
Other   |            | 0.0004519  |            |       | 24.84

Nlocal:             62 ave          62 max          62 min
Histogram: 1 0 0 0 0 0 0 0 0 0
Nghost:            882 ave         882 max         882 min
Histogram: 1 0 0 0 0 0 0 0 0 0
Neighs:              0 ave           0 max           0 min
Histogram: 1 0 0 0 0 0 0 0 0 0
FullNghs:        21398 ave       21398 max       21398 min
Histogram: 1 0 0 0 0 0 0 0 0 0

Total # of neighbors = 21398
Ave neighs/atom = 345.12903
Neighbor list builds = 0
Dangerous builds = 0

next nr
jump ${simname}.in loopmin
jump AIREBO.in loopmin

# Minimize the with cg + box/relax
  fix             frb all box/relax tri 0.0 couple none
  min_style       cg
  min_modify      line quadratic
  minimize        0.0 1.0e-3 10000 10000
WARNING: Energy due to 6 extra global DOFs will be included in minimizer energies
 (src/min.cpp:225)
Per MPI rank memory allocation (min/avg/max) = 5.044 | 5.044 | 5.044 Mbytes
   Step          Temp          PotEng           Lx             Ly             Lz            Pxx            Pyy            Pzz            Fmax          Fnorm     
      1554  6.881692149175099e-10   -458.3165907908686    9.611812664739618    8.324074852357043    51.16117859988433 -0.003312830712097897 -5.299655085680066e-05 -0.01235224692252565 1.425207422281471e-05 0.0001046574222714701
      1555  6.881692149175099e-10   -458.3165907908861    9.611812399632862    8.324074848684029     51.1611733384679  0.06261413657763491 -0.01613757846432698 0.009559791203230356 1.242760955349922e-05 5.748254904941555e-05
Loop time of 0.00176207 on 1 procs for 1 steps with 62 atoms

78.7% CPU use with 1 MPI tasks x no OpenMP threads

Minimization stats:
  Stopping criterion = force tolerance
  Energy initial, next-to-last, final = 
     -458.316590790869  -458.316590790869  -458.316590790886
  Force two-norm initial, final = 0.00011111707 0.0002459706
  Force max component initial, final = 3.1558579e-05 0.00017120115
  Final line search alpha, max atom move = 1 0.00017120115
  Iterations, force evaluations = 1 2

MPI task timing breakdown:
Section |  min time  |  avg time  |  max time  |%varavg| %total
---------------------------------------------------------------
Pair    | 0.0012799  | 0.0012799  | 0.0012799  |   0.0 | 72.64
Neigh   | 0          | 0          | 0          |   0.0 |  0.00
Comm    | 6.694e-06  | 6.694e-06  | 6.694e-06  |   0.0 |  0.38
Output  | 0          | 0          | 0          |   0.0 |  0.00
Modify  | 0          | 0          | 0          |   0.0 |  0.00
Other   |            | 0.0004755  |            |       | 26.98

Nlocal:             62 ave          62 max          62 min
Histogram: 1 0 0 0 0 0 0 0 0 0
Nghost:            882 ave         882 max         882 min
Histogram: 1 0 0 0 0 0 0 0 0 0
Neighs:              0 ave           0 max           0 min
Histogram: 1 0 0 0 0 0 0 0 0 0
FullNghs:        21398 ave       21398 max       21398 min
Histogram: 1 0 0 0 0 0 0 0 0 0

Total # of neighbors = 21398
Ave neighs/atom = 345.12903
Neighbor list builds = 0
Dangerous builds = 0

# Minimize the with fire
  unfix           frb
  min_style       fire
  minimize        0.0 1.0e-3 10000 10000
  Parameters for fire:
    dmax  delaystep dtgrow dtshrink alpha0 alphashrink tmax tmin   integrator   halfstepback   abcfire  
     0.1     20      1.1     0.5     0.25     0.99      10  0.02 eulerimplicit      yes          no     
Per MPI rank memory allocation (min/avg/max) = 3.919 | 3.919 | 3.919 Mbytes
   Step          Temp          PotEng           Lx             Ly             Lz            Pxx            Pyy            Pzz            Fmax          Fnorm     
      1555                     0   -458.3165907908859    9.611812399632862    8.324074848684029     51.1611733384679   0.0626141356356526 -0.01613758122270647 0.009559790402353319 1.242760954769818e-05 5.748254919056372e-05
      1556  1.683176759135656e-10   -458.3165907908885    9.611812399632862    8.324074848684029     51.1611733384679    0.065303263056259 -0.01886209324766359 0.009474481192935038 1.241335950242411e-05 5.43764952530704e-05
Loop time of 0.00209821 on 1 procs for 1 steps with 62 atoms

78.1% CPU use with 1 MPI tasks x no OpenMP threads

Minimization stats:
  Stopping criterion = force tolerance
  Energy initial, next-to-last, final = 
     -458.316590790886  -458.316590790886  -458.316590790888
  Force two-norm initial, final = 5.7482549e-05 5.4376495e-05
  Force max component initial, final = 1.242761e-05 1.241336e-05
  Final line search alpha, max atom move = 0 0
  Iterations, force evaluations = 1 2

MPI task timing breakdown:
Section |  min time  |  avg time  |  max time  |%varavg| %total
---------------------------------------------------------------
Pair    | 0.0015124  | 0.0015124  | 0.0015124  |   0.0 | 72.08
Neigh   | 0          | 0          | 0          |   0.0 |  0.00
Comm    | 1.1663e-05 | 1.1663e-05 | 1.1663e-05 |   0.0 |  0.56
Output  | 0          | 0          | 0          |   0.0 |  0.00
Modify  | 0          | 0          | 0          |   0.0 |  0.00
Other   |            | 0.0005742  |            |       | 27.37

Nlocal:             62 ave          62 max          62 min
Histogram: 1 0 0 0 0 0 0 0 0 0
Nghost:            882 ave         882 max         882 min
Histogram: 1 0 0 0 0 0 0 0 0 0
Neighs:              0 ave           0 max           0 min
Histogram: 1 0 0 0 0 0 0 0 0 0
FullNghs:        21398 ave       21398 max       21398 min
Histogram: 1 0 0 0 0 0 0 0 0 0

Total # of neighbors = 21398
Ave neighs/atom = 345.12903
Neighbor list builds = 0
Dangerous builds = 0

next nr
jump ${simname}.in loopmin
jump AIREBO.in loopmin

# Minimize the with cg + box/relax
  fix             frb all box/relax tri 0.0 couple none
  min_style       cg
  min_modify      line quadratic
  minimize        0.0 1.0e-3 10000 10000
WARNING: Energy due to 6 extra global DOFs will be included in minimizer energies
 (src/min.cpp:225)
Per MPI rank memory allocation (min/avg/max) = 5.044 | 5.044 | 5.044 Mbytes
   Step          Temp          PotEng           Lx             Ly             Lz            Pxx            Pyy            Pzz            Fmax          Fnorm     
      1556  1.683176759135656e-10   -458.3165907908885    9.611812399632862    8.324074848684029     51.1611733384679  0.06530326292175802 -0.01886209339007478 0.009474481180352878 1.241335949440281e-05 5.437649522040271e-05
      1557  1.683176759135656e-10   -458.3165907909054     9.61181293957692    8.324074713621625    51.16117375543761 -0.008044483383002912 -0.005691178223087157 0.006163934158595585 1.21968128016569e-05 6.942790319716116e-05
Loop time of 0.00168944 on 1 procs for 1 steps with 62 atoms

86.8% CPU use with 1 MPI tasks x no OpenMP threads

Minimization stats:
  Stopping criterion = force tolerance
  Energy initial, next-to-last, final = 
     -458.316590790889  -458.316590790889  -458.316590790905
  Force two-norm initial, final = 0.00025151392 7.5822547e-05
  Force max component initial, final = 0.00017192384 2.0552732e-05
  Final line search alpha, max atom move = 0.58165291 1.1954556e-05
  Iterations, force evaluations = 1 2

MPI task timing breakdown:
Section |  min time  |  avg time  |  max time  |%varavg| %total
---------------------------------------------------------------
Pair    | 0.0013288  | 0.0013288  | 0.0013288  |   0.0 | 78.65
Neigh   | 0          | 0          | 0          |   0.0 |  0.00
Comm    | 6.173e-06  | 6.173e-06  | 6.173e-06  |   0.0 |  0.37
Output  | 0          | 0          | 0          |   0.0 |  0.00
Modify  | 0          | 0          | 0          |   0.0 |  0.00
Other   |            | 0.0003545  |            |       | 20.98

Nlocal:             62 ave          62 max          62 min
Histogram: 1 0 0 0 0 0 0 0 0 0
Nghost:            882 ave         882 max         882 min
Histogram: 1 0 0 0 0 0 0 0 0 0
Neighs:              0 ave           0 max           0 min
Histogram: 1 0 0 0 0 0 0 0 0 0
FullNghs:        21398 ave       21398 max       21398 min
Histogram: 1 0 0 0 0 0 0 0 0 0

Total # of neighbors = 21398
Ave neighs/atom = 345.12903
Neighbor list builds = 0
Dangerous builds = 0

# Minimize the with fire
  unfix           frb
  min_style       fire
  minimize        0.0 1.0e-3 10000 10000
  Parameters for fire:
    dmax  delaystep dtgrow dtshrink alpha0 alphashrink tmax tmin   integrator   halfstepback   abcfire  
     0.1     20      1.1     0.5     0.25     0.99      10  0.02 eulerimplicit      yes          no     
Per MPI rank memory allocation (min/avg/max) = 3.919 | 3.919 | 3.919 Mbytes
   Step          Temp          PotEng           Lx             Ly             Lz            Pxx            Pyy            Pzz            Fmax          Fnorm     
      1557                     0   -458.3165907909053     9.61181293957692    8.324074713621625    51.16117375543761 -0.008044483262305382 -0.005691178749505017 0.006163933779680208 1.219681279796536e-05 6.942790310337901e-05
      1558  2.455419976816447e-10   -458.3165907909095     9.61181293957692    8.324074713621625    51.16117375543761 -0.004537697353372263 -0.009191881225681328 0.006092604698282373 1.218286806734632e-05 6.426297897015725e-05
Loop time of 0.00164828 on 1 procs for 1 steps with 62 atoms

81.8% CPU use with 1 MPI tasks x no OpenMP threads

Minimization stats:
  Stopping criterion = force tolerance
  Energy initial, next-to-last, final = 
     -458.316590790905  -458.316590790905   -458.31659079091
  Force two-norm initial, final = 6.9427903e-05 6.4262979e-05
  Force max component initial, final = 1.2196813e-05 1.2182868e-05
  Final line search alpha, max atom move = 0 0
  Iterations, force evaluations = 1 2

MPI task timing breakdown:
Section |  min time  |  avg time  |  max time  |%varavg| %total
---------------------------------------------------------------
Pair    | 0.0012542  | 0.0012542  | 0.0012542  |   0.0 | 76.09
Neigh   | 0          | 0          | 0          |   0.0 |  0.00
Comm    | 6.841e-06  | 6.841e-06  | 6.841e-06  |   0.0 |  0.42
Output  | 0          | 0          | 0          |   0.0 |  0.00
Modify  | 0          | 0          | 0          |   0.0 |  0.00
Other   |            | 0.0003873  |            |       | 23.50

Nlocal:             62 ave          62 max          62 min
Histogram: 1 0 0 0 0 0 0 0 0 0
Nghost:            882 ave         882 max         882 min
Histogram: 1 0 0 0 0 0 0 0 0 0
Neighs:              0 ave           0 max           0 min
Histogram: 1 0 0 0 0 0 0 0 0 0
FullNghs:        21398 ave       21398 max       21398 min
Histogram: 1 0 0 0 0 0 0 0 0 0

Total # of neighbors = 21398
Ave neighs/atom = 345.12903
Neighbor list builds = 0
Dangerous builds = 0

next nr
jump ${simname}.in loopmin
jump AIREBO.in loopmin

# Minimize the with cg + box/relax
  fix             frb all box/relax tri 0.0 couple none
  min_style       cg
  min_modify      line quadratic
  minimize        0.0 1.0e-3 10000 10000
WARNING: Energy due to 6 extra global DOFs will be included in minimizer energies
 (src/min.cpp:225)
Per MPI rank memory allocation (min/avg/max) = 5.044 | 5.044 | 5.044 Mbytes
   Step          Temp          PotEng           Lx             Ly             Lz            Pxx            Pyy            Pzz            Fmax          Fnorm     
      1558  2.455419976816447e-10   -458.3165907909098     9.61181293957692    8.324074713621625    51.16117375543761 -0.004537697114988806 -0.009191881621233092 0.006092604849428841 1.218286807855958e-05 6.426297902521935e-05
      1559  2.455419976816447e-10   -458.3165907909124    9.611812734965467    8.324074354675286    51.16117521772446  0.03587342746812133  0.04375775727018508 0.003275757030763723 1.248915492755047e-05 5.718967205907163e-05
Loop time of 0.00162104 on 1 procs for 1 steps with 62 atoms

83.9% CPU use with 1 MPI tasks x no OpenMP threads

Minimization stats:
  Stopping criterion = force tolerance
  Energy initial, next-to-last, final = 
      -458.31659079091   -458.31659079091  -458.316590790912
  Force two-norm initial, final = 7.1130759e-05 0.00016003529
  Force max component initial, final = 2.3484206e-05 0.00011179605
  Final line search alpha, max atom move = 1 0.00011179605
  Iterations, force evaluations = 1 2

MPI task timing breakdown:
Section |  min time  |  avg time  |  max time  |%varavg| %total
---------------------------------------------------------------
Pair    | 0.0012718  | 0.0012718  | 0.0012718  |   0.0 | 78.46
Neigh   | 0          | 0          | 0          |   0.0 |  0.00
Comm    | 6.229e-06  | 6.229e-06  | 6.229e-06  |   0.0 |  0.38
Output  | 0          | 0          | 0          |   0.0 |  0.00
Modify  | 0          | 0          | 0          |   0.0 |  0.00
Other   |            | 0.000343   |            |       | 21.16

Nlocal:             62 ave          62 max          62 min
Histogram: 1 0 0 0 0 0 0 0 0 0
Nghost:            882 ave         882 max         882 min
Histogram: 1 0 0 0 0 0 0 0 0 0
Neighs:              0 ave           0 max           0 min
Histogram: 1 0 0 0 0 0 0 0 0 0
FullNghs:        21398 ave       21398 max       21398 min
Histogram: 1 0 0 0 0 0 0 0 0 0

Total # of neighbors = 21398
Ave neighs/atom = 345.12903
Neighbor list builds = 0
Dangerous builds = 0

# Minimize the with fire
  unfix           frb
  min_style       fire
  minimize        0.0 1.0e-3 10000 10000
  Parameters for fire:
    dmax  delaystep dtgrow dtshrink alpha0 alphashrink tmax tmin   integrator   halfstepback   abcfire  
     0.1     20      1.1     0.5     0.25     0.99      10  0.02 eulerimplicit      yes          no     
Per MPI rank memory allocation (min/avg/max) = 3.919 | 3.919 | 3.919 Mbytes
   Step          Temp          PotEng           Lx             Ly             Lz            Pxx            Pyy            Pzz            Fmax          Fnorm     
      1559                     0   -458.3165907909126    9.611812734965467    8.324074354675286    51.16117521772446   0.0358734271120397  0.04375775670922048  0.00327575652546264 1.24891549500048e-05 5.718967216959167e-05
      1560  1.666068685359668e-10   -458.3165907909172    9.611812734965467    8.324074354675286    51.16117521772446  0.03839553959171454  0.04098723890415928 0.003443313480533715 1.247430561746204e-05 5.412107334500792e-05
Loop time of 0.00167335 on 1 procs for 1 steps with 62 atoms

83.1% CPU use with 1 MPI tasks x no OpenMP threads

Minimization stats:
  Stopping criterion = force tolerance
  Energy initial, next-to-last, final = 
[...]
Histogram: 1 0 0 0 0 0 0 0 0 0
FullNghs:        21398 ave       21398 max       21398 min
Histogram: 1 0 0 0 0 0 0 0 0 0

Total # of neighbors = 21398
Ave neighs/atom = 345.12903
Neighbor list builds = 0
Dangerous builds = 0

# Minimize the with fire
  unfix           frb
  min_style       fire
  minimize        0.0 1.0e-3 10000 10000
  Parameters for fire:
    dmax  delaystep dtgrow dtshrink alpha0 alphashrink tmax tmin   integrator   halfstepback   abcfire  
     0.1     20      1.1     0.5     0.25     0.99      10  0.02 eulerimplicit      yes          no     
Per MPI rank memory allocation (min/avg/max) = 3.919 | 3.919 | 3.919 Mbytes
   Step          Temp          PotEng           Lx             Ly             Lz            Pxx            Pyy            Pzz            Fmax          Fnorm     
      1735                     0   -458.3165907911113    9.611812977973541    8.324074216844886    51.16118373011852 0.008426034884622959  0.00842579835899822  0.00162334031250286 1.042891923054748e-05  3.5586513846121e-05
      1736  6.451022818987976e-11   -458.3165907911104    9.611812977973541    8.324074216844886    51.16118373011852 0.008305912740997746 0.008303518619346863 0.001822131818761193 1.041731813045202e-05 3.552327027371406e-05
Loop time of 0.00172487 on 1 procs for 1 steps with 62 atoms

88.1% CPU use with 1 MPI tasks x no OpenMP threads

Minimization stats:
  Stopping criterion = force tolerance
  Energy initial, next-to-last, final = 
     -458.316590791111  -458.316590791111   -458.31659079111
  Force two-norm initial, final = 3.5586514e-05 3.552327e-05
  Force max component initial, final = 1.0428919e-05 1.0417318e-05
  Final line search alpha, max atom move = 0 0
  Iterations, force evaluations = 1 2

MPI task timing breakdown:
Section |  min time  |  avg time  |  max time  |%varavg| %total
---------------------------------------------------------------
Pair    | 0.0014144  | 0.0014144  | 0.0014144  |   0.0 | 82.00
Neigh   | 0          | 0          | 0          |   0.0 |  0.00
Comm    | 8.199e-06  | 8.199e-06  | 8.199e-06  |   0.0 |  0.48
Output  | 0          | 0          | 0          |   0.0 |  0.00
Modify  | 0          | 0          | 0          |   0.0 |  0.00
Other   |            | 0.0003023  |            |       | 17.53

Nlocal:             62 ave          62 max          62 min
Histogram: 1 0 0 0 0 0 0 0 0 0
Nghost:            882 ave         882 max         882 min
Histogram: 1 0 0 0 0 0 0 0 0 0
Neighs:              0 ave           0 max           0 min
Histogram: 1 0 0 0 0 0 0 0 0 0
FullNghs:        21398 ave       21398 max       21398 min
Histogram: 1 0 0 0 0 0 0 0 0 0

Total # of neighbors = 21398
Ave neighs/atom = 345.12903
Neighbor list builds = 0
Dangerous builds = 0

next nr
jump ${simname}.in loopmin
jump AIREBO.in loopmin

# Minimize the with cg + box/relax
  fix             frb all box/relax tri 0.0 couple none
  min_style       cg
  min_modify      line quadratic
  minimize        0.0 1.0e-3 10000 10000
WARNING: Energy due to 6 extra global DOFs will be included in minimizer energies
 (src/min.cpp:225)
Per MPI rank memory allocation (min/avg/max) = 5.044 | 5.044 | 5.044 Mbytes
   Step          Temp          PotEng           Lx             Ly             Lz            Pxx            Pyy            Pzz            Fmax          Fnorm     
      1736  6.451022818987976e-11   -458.3165907911105    9.611812977973541    8.324074216844886    51.16118373011852 0.008305912777831973 0.008303518385295089 0.001822131839804623 1.041731812023799e-05 3.552327027764063e-05
      1737  6.451022818987976e-11   -458.3165907911105    9.611813093302436    8.324074316693848    51.16118386478693 -0.009746350979083791 -0.009745970562473673 0.0004197070799912873 1.028277531215412e-05 3.532636992257054e-05
Loop time of 0.00156165 on 1 procs for 1 steps with 62 atoms

86.6% CPU use with 1 MPI tasks x no OpenMP threads

Minimization stats:
  Stopping criterion = force tolerance
  Energy initial, next-to-last, final = 
      -458.31659079111   -458.31659079111   -458.31659079111
  Force two-norm initial, final = 4.8511124e-05 5.2111259e-05
  Force max component initial, final = 2.1220658e-05 2.4900814e-05
  Final line search alpha, max atom move = 1 2.4900814e-05
  Iterations, force evaluations = 1 2

MPI task timing breakdown:
Section |  min time  |  avg time  |  max time  |%varavg| %total
---------------------------------------------------------------
Pair    | 0.0012729  | 0.0012729  | 0.0012729  |   0.0 | 81.51
Neigh   | 0          | 0          | 0          |   0.0 |  0.00
Comm    | 6.641e-06  | 6.641e-06  | 6.641e-06  |   0.0 |  0.43
Output  | 0          | 0          | 0          |   0.0 |  0.00
Modify  | 0          | 0          | 0          |   0.0 |  0.00
Other   |            | 0.0002821  |            |       | 18.06

Nlocal:             62 ave          62 max          62 min
Histogram: 1 0 0 0 0 0 0 0 0 0
Nghost:            882 ave         882 max         882 min
Histogram: 1 0 0 0 0 0 0 0 0 0
Neighs:              0 ave           0 max           0 min
Histogram: 1 0 0 0 0 0 0 0 0 0
FullNghs:        21398 ave       21398 max       21398 min
Histogram: 1 0 0 0 0 0 0 0 0 0

Total # of neighbors = 21398
Ave neighs/atom = 345.12903
Neighbor list builds = 0
Dangerous builds = 0

# Minimize the with fire
  unfix           frb
  min_style       fire
  minimize        0.0 1.0e-3 10000 10000
  Parameters for fire:
    dmax  delaystep dtgrow dtshrink alpha0 alphashrink tmax tmin   integrator   halfstepback   abcfire  
     0.1     20      1.1     0.5     0.25     0.99      10  0.02 eulerimplicit      yes          no     
Per MPI rank memory allocation (min/avg/max) = 3.919 | 3.919 | 3.919 Mbytes
   Step          Temp          PotEng           Lx             Ly             Lz            Pxx            Pyy            Pzz            Fmax          Fnorm     
      1737                     0   -458.3165907911103    9.611813093302436    8.324074316693848    51.16118386478693 -0.009746350712659025 -0.009745970306246911 0.0004197067721339334 1.028277531018367e-05 3.532636992797883e-05
      1738  6.357051242283328e-11   -458.3165907911091    9.611813093302436    8.324074316693848    51.16118386478693 -0.009840780317074848 -0.009842526058104805 0.0005926185508920013 1.027144223258329e-05 3.526540597549555e-05
Loop time of 0.00158259 on 1 procs for 1 steps with 62 atoms

86.1% CPU use with 1 MPI tasks x no OpenMP threads

Minimization stats:
  Stopping criterion = force tolerance
  Energy initial, next-to-last, final = 
      -458.31659079111   -458.31659079111  -458.316590791109
  Force two-norm initial, final = 3.532637e-05 3.5265406e-05
  Force max component initial, final = 1.0282775e-05 1.0271442e-05
  Final line search alpha, max atom move = 0 0
  Iterations, force evaluations = 1 2

MPI task timing breakdown:
Section |  min time  |  avg time  |  max time  |%varavg| %total
---------------------------------------------------------------
Pair    | 0.0012785  | 0.0012785  | 0.0012785  |   0.0 | 80.78
Neigh   | 0          | 0          | 0          |   0.0 |  0.00
Comm    | 6.227e-06  | 6.227e-06  | 6.227e-06  |   0.0 |  0.39
Output  | 0          | 0          | 0          |   0.0 |  0.00
Modify  | 0          | 0          | 0          |   0.0 |  0.00
Other   |            | 0.0002979  |            |       | 18.82

Nlocal:             62 ave          62 max          62 min
Histogram: 1 0 0 0 0 0 0 0 0 0
Nghost:            882 ave         882 max         882 min
Histogram: 1 0 0 0 0 0 0 0 0 0
Neighs:              0 ave           0 max           0 min
Histogram: 1 0 0 0 0 0 0 0 0 0
FullNghs:        21398 ave       21398 max       21398 min
Histogram: 1 0 0 0 0 0 0 0 0 0

Total # of neighbors = 21398
Ave neighs/atom = 345.12903
Neighbor list builds = 0
Dangerous builds = 0

next nr
jump ${simname}.in loopmin
jump AIREBO.in loopmin

# Minimize the with cg + box/relax
  fix             frb all box/relax tri 0.0 couple none
  min_style       cg
  min_modify      line quadratic
  minimize        0.0 1.0e-3 10000 10000
WARNING: Energy due to 6 extra global DOFs will be included in minimizer energies
 (src/min.cpp:225)
Per MPI rank memory allocation (min/avg/max) = 5.044 | 5.044 | 5.044 Mbytes
   Step          Temp          PotEng           Lx             Ly             Lz            Pxx            Pyy            Pzz            Fmax          Fnorm     
      1738  6.357051242283328e-11   -458.3165907911089    9.611813093302436    8.324074316693848    51.16118386478693 -0.009840780353329363 -0.009842525901975053 0.0005926185989050704 1.027144222947473e-05 3.526540597714067e-05
      1739  6.357051242283328e-11   -458.3165907911106    9.611812975989613    8.324074215079941    51.16118390239025 0.008234519814906362 0.008234190933378615 0.001606778218472907 1.039310326346915e-05 3.54803225015221e-05
Loop time of 0.00159124 on 1 procs for 1 steps with 62 atoms

88.4% CPU use with 1 MPI tasks x no OpenMP threads

Minimization stats:
  Stopping criterion = force tolerance
  Energy initial, next-to-last, final = 
     -458.316590791109  -458.316590791109  -458.316590791111
  Force two-norm initial, final = 5.2185253e-05 4.829959e-05
  Force max component initial, final = 2.514653e-05 2.1038258e-05
  Final line search alpha, max atom move = 1 2.1038258e-05
  Iterations, force evaluations = 1 2

MPI task timing breakdown:
Section |  min time  |  avg time  |  max time  |%varavg| %total
---------------------------------------------------------------
Pair    | 0.001323   | 0.001323   | 0.001323   |   0.0 | 83.14
Neigh   | 0          | 0          | 0          |   0.0 |  0.00
Comm    | 6.358e-06  | 6.358e-06  | 6.358e-06  |   0.0 |  0.40
Output  | 0          | 0          | 0          |   0.0 |  0.00
Modify  | 0          | 0          | 0          |   0.0 |  0.00
Other   |            | 0.0002619  |            |       | 16.46

Nlocal:             62 ave          62 max          62 min
Histogram: 1 0 0 0 0 0 0 0 0 0
Nghost:            882 ave         882 max         882 min
Histogram: 1 0 0 0 0 0 0 0 0 0
Neighs:              0 ave           0 max           0 min
Histogram: 1 0 0 0 0 0 0 0 0 0
FullNghs:        21398 ave       21398 max       21398 min
Histogram: 1 0 0 0 0 0 0 0 0 0

Total # of neighbors = 21398
Ave neighs/atom = 345.12903
Neighbor list builds = 0
Dangerous builds = 0

# Minimize the with fire
  unfix           frb
  min_style       fire
  minimize        0.0 1.0e-3 10000 10000
  Parameters for fire:
    dmax  delaystep dtgrow dtshrink alpha0 alphashrink tmax tmin   integrator   halfstepback   abcfire  
     0.1     20      1.1     0.5     0.25     0.99      10  0.02 eulerimplicit      yes          no     
Per MPI rank memory allocation (min/avg/max) = 3.919 | 3.919 | 3.919 Mbytes
   Step          Temp          PotEng           Lx             Ly             Lz            Pxx            Pyy            Pzz            Fmax          Fnorm     
      1739                     0   -458.3165907911107    9.611812975989613    8.324074215079941    51.16118390239025 0.008234519788462681 0.008234191231906166  0.00160677776938975 1.03931032841193e-05 3.548032251765656e-05
      1740  6.412580127252097e-11     -458.31659079111    9.611812975989613    8.324074215079941    51.16118390239025 0.008114886606308151 0.008112498808532745  0.00180461605617308 1.03815536873426e-05 3.541748094678383e-05
Loop time of 0.00156651 on 1 procs for 1 steps with 62 atoms

88.2% CPU use with 1 MPI tasks x no OpenMP threads

Minimization stats:
  Stopping criterion = force tolerance
  Energy initial, next-to-last, final = 
     -458.316590791111  -458.316590791111   -458.31659079111
  Force two-norm initial, final = 3.5480323e-05 3.5417481e-05
  Force max component initial, final = 1.0393103e-05 1.0381554e-05
  Final line search alpha, max atom move = 0 0
  Iterations, force evaluations = 1 2

MPI task timing breakdown:
Section |  min time  |  avg time  |  max time  |%varavg| %total
---------------------------------------------------------------
Pair    | 0.0013026  | 0.0013026  | 0.0013026  |   0.0 | 83.15
Neigh   | 0          | 0          | 0          |   0.0 |  0.00
Comm    | 6.113e-06  | 6.113e-06  | 6.113e-06  |   0.0 |  0.39
Output  | 0          | 0          | 0          |   0.0 |  0.00
Modify  | 0          | 0          | 0          |   0.0 |  0.00
Other   |            | 0.0002578  |            |       | 16.46

Nlocal:             62 ave          62 max          62 min
Histogram: 1 0 0 0 0 0 0 0 0 0
Nghost:            882 ave         882 max         882 min
Histogram: 1 0 0 0 0 0 0 0 0 0
Neighs:              0 ave           0 max           0 min
Histogram: 1 0 0 0 0 0 0 0 0 0
FullNghs:        21398 ave       21398 max       21398 min
Histogram: 1 0 0 0 0 0 0 0 0 0

Total # of neighbors = 21398
Ave neighs/atom = 345.12903
Neighbor list builds = 0
Dangerous builds = 0

next nr
jump ${simname}.in loopmin
jump AIREBO.in loopmin

# Minimize the with cg + box/relax
  fix             frb all box/relax tri 0.0 couple none
  min_style       cg
  min_modify      line quadratic
  minimize        0.0 1.0e-3 10000 10000
Per MPI rank memory allocation (min/avg/max) = 5.044 | 5.044 | 5.044 Mbytes
   Step          Temp          PotEng           Lx             Ly             Lz            Pxx            Pyy            Pzz            Fmax          Fnorm     
WARNING: Too many warnings: 101 vs 100. All future warnings will be suppressed (src/thermo.cpp:472)
      1740  6.412580127252097e-11   -458.3165907911103    9.611812975989613    8.324074215079941    51.16118390239025 0.008114886674439988 0.008112498671571607 0.001804615960939727 1.038155368007072e-05 3.541748096797722e-05
      1741  6.412580127252097e-11   -458.3165907911139    9.611813091141071    8.324074314774682    51.16118403869373 -0.009912754963568591 -0.009912251766390726 0.0003999891780219538 1.024706257077283e-05 3.522267822156843e-05
Loop time of 0.00173745 on 1 procs for 1 steps with 62 atoms

84.5% CPU use with 1 MPI tasks x no OpenMP threads

Minimization stats:
  Stopping criterion = force tolerance
  Energy initial, next-to-last, final = 
      -458.31659079111   -458.31659079111  -458.316590791114
  Force two-norm initial, final = 4.7927473e-05 5.2524273e-05
  Force max component initial, final = 2.0732608e-05 2.5325957e-05
  Final line search alpha, max atom move = 1 2.5325957e-05
  Iterations, force evaluations = 1 2

MPI task timing breakdown:
Section |  min time  |  avg time  |  max time  |%varavg| %total
---------------------------------------------------------------
Pair    | 0.0013636  | 0.0013636  | 0.0013636  |   0.0 | 78.48
Neigh   | 0          | 0          | 0          |   0.0 |  0.00
Comm    | 6.29e-06   | 6.29e-06   | 6.29e-06   |   0.0 |  0.36
Output  | 0          | 0          | 0          |   0.0 |  0.00
Modify  | 0          | 0          | 0          |   0.0 |  0.00
Other   |            | 0.0003676  |            |       | 21.16

Nlocal:             62 ave          62 max          62 min
Histogram: 1 0 0 0 0 0 0 0 0 0
Nghost:            882 ave         882 max         882 min
Histogram: 1 0 0 0 0 0 0 0 0 0
Neighs:              0 ave           0 max           0 min
Histogram: 1 0 0 0 0 0 0 0 0 0
FullNghs:        21398 ave       21398 max       21398 min
Histogram: 1 0 0 0 0 0 0 0 0 0

Total # of neighbors = 21398
Ave neighs/atom = 345.12903
Neighbor list builds = 0
Dangerous builds = 0

# Minimize the with fire
  unfix           frb
  min_style       fire
  minimize        0.0 1.0e-3 10000 10000
  Parameters for fire:
    dmax  delaystep dtgrow dtshrink alpha0 alphashrink tmax tmin   integrator   halfstepback   abcfire  
     0.1     20      1.1     0.5     0.25     0.99      10  0.02 eulerimplicit      yes          no     
Per MPI rank memory allocation (min/avg/max) = 3.919 | 3.919 | 3.919 Mbytes
   Step          Temp          PotEng           Lx             Ly             Lz            Pxx            Pyy            Pzz            Fmax          Fnorm     
      1741                     0   -458.3165907911139    9.611813091141071    8.324074314774682    51.16118403869373 -0.009912754904310907 -0.009912251453876196 0.0003999887827255585 1.024706256999554e-05 3.522267822366465e-05
      1742  6.31978694969917e-11   -458.3165907911136    9.611813091141071    8.324074314774682    51.16118403869373  -0.0100067548720665 -0.01000828822817139 0.0005720775771686125 1.023578055934378e-05 3.516172222439705e-05
Loop time of 0.0128346 on 1 procs for 1 steps with 62 atoms

11.4% CPU use with 1 MPI tasks x no OpenMP threads

Minimization stats:
  Stopping criterion = force tolerance
  Energy initial, next-to-last, final = 
     -458.316590791114  -458.316590791114  -458.316590791114
  Force two-norm initial, final = 3.5222678e-05 3.5161722e-05
  Force max component initial, final = 1.0247063e-05 1.0235781e-05
  Final line search alpha, max atom move = 0 0
  Iterations, force evaluations = 1 2

MPI task timing breakdown:
Section |  min time  |  avg time  |  max time  |%varavg| %total
---------------------------------------------------------------
Pair    | 0.0012942  | 0.0012942  | 0.0012942  |   0.0 | 10.08
Neigh   | 0          | 0          | 0          |   0.0 |  0.00
Comm    | 6.002e-06  | 6.002e-06  | 6.002e-06  |   0.0 |  0.05
Output  | 0          | 0          | 0          |   0.0 |  0.00
Modify  | 0          | 0          | 0          |   0.0 |  0.00
Other   |            | 0.01153    |            |       | 89.87

Nlocal:             62 ave          62 max          62 min
Histogram: 1 0 0 0 0 0 0 0 0 0
Nghost:            882 ave         882 max         882 min
Histogram: 1 0 0 0 0 0 0 0 0 0
Neighs:              0 ave           0 max           0 min
Histogram: 1 0 0 0 0 0 0 0 0 0
FullNghs:        21398 ave       21398 max       21398 min
Histogram: 1 0 0 0 0 0 0 0 0 0

Total # of neighbors = 21398
Ave neighs/atom = 345.12903
Neighbor list builds = 0
Dangerous builds = 0

next nr
jump ${simname}.in loopmin
jump AIREBO.in loopmin

variable        energy equal pe
fix             output all ave/time 1 1 1 v_energy file ${simname}_energy.data
fix             output all ave/time 1 1 1 v_energy file AIREBO_energy.data
dump            dump1 all custom 1 ${simname}.lammpstrj id type x y z fx fy fz
dump            dump1 all custom 1 AIREBO.lammpstrj id type x y z fx fy fz
dump_modify     dump1 sort id

fix             nve all nve
run             0
Per MPI rank memory allocation (min/avg/max) = 3.919 | 3.919 | 3.919 Mbytes
   Step          Temp          PotEng           Lx             Ly             Lz            Pxx            Pyy            Pzz            Fmax          Fnorm     
      1742  6.31978694969917e-11   -458.3165907911138    9.611813091141071    8.324074314774682    51.16118403869373 -0.01000675478050393 -0.01000828808096426 0.0005720775914501862 1.023578056811452e-05 3.516172221973118e-05
Loop time of 7.87e-07 on 1 procs for 0 steps with 62 atoms

635.3% CPU use with 1 MPI tasks x no OpenMP threads

MPI task timing breakdown:
Section |  min time  |  avg time  |  max time  |%varavg| %total
---------------------------------------------------------------
Pair    | 0          | 0          | 0          |   0.0 |  0.00
Neigh   | 0          | 0          | 0          |   0.0 |  0.00
Comm    | 0          | 0          | 0          |   0.0 |  0.00
Output  | 0          | 0          | 0          |   0.0 |  0.00
Modify  | 0          | 0          | 0          |   0.0 |  0.00
Other   |            | 7.87e-07   |            |       |100.00

Nlocal:             62 ave          62 max          62 min
Histogram: 1 0 0 0 0 0 0 0 0 0
Nghost:            882 ave         882 max         882 min
Histogram: 1 0 0 0 0 0 0 0 0 0
Neighs:              0 ave           0 max           0 min
Histogram: 1 0 0 0 0 0 0 0 0 0
FullNghs:        21398 ave       21398 max       21398 min
Histogram: 1 0 0 0 0 0 0 0 0 0

Total # of neighbors = 21398
Ave neighs/atom = 345.12903
Neighbor list builds = 0
Dangerous builds = 0
Total wall time: 0:00:02
