ITEM: TIMESTEP
1553
ITEM: NUMBER OF ATOMS
62
ITEM: BOX BOUNDS xy xz yz pp pp pp
2.4976302484282665e-02 1.4643735274622609e+01 4.8727604211286000e+00
2.1681101272997810e-02 8.4619365008007943e+00 4.7811097829816797e-04
-4.4878336321721973e-01 5.0400535696817165e+01 3.8712397368672740e-04
ITEM: ATOMS id type x y z fx fy fz
1 1 0.0301578 0.0244866 22.7969 -3.01851e-06 -7.09307e-07 -2.19792e-06
2 1 1.24326 0.724872 22.6708 7.00615e-07 -1.96721e-07 5.3513e-06
3 1 0.0301578 0.0244866 19.019 -3.01363e-06 -7.03944e-07 2.20861e-06
4 1 1.24326 0.724872 19.145 7.04097e-07 -1.94183e-07 -5.3681e-06
5 1 10.97 2.14125 22.5854 -6.4047e-07 -5.7892e-07 2.37087e-06
6 1 2.46048 2.83316 22.6708 1.07576e-06 7.76851e-07 5.49657e-06
7 1 10.97 2.14125 19.2304 -6.36747e-07 -5.79885e-07 -2.40439e-06
8 1 2.46048 2.83316 19.145 1.0829e-06 7.74121e-07 -5.50943e-06
9 1 2.46048 4.23393 22.7969 -1.81415e-06 1.14258e-06 -2.33973e-06
10 1 3.68594 4.93336 22.7669 -2.39927e-07 9.17699e-07 -5.53731e-06
11 1 2.46048 4.23393 19.019 -1.80345e-06 1.14031e-06 2.3408e-06
12 1 3.68594 4.93336 19.0489 -2.37099e-07 9.20252e-07 5.58876e-06
13 1 3.69193 6.34323 22.9363 -8.35435e-07 -4.33704e-07 9.17647e-06
14 1 4.90992 7.05336 22.7669 -4.26852e-07 9.65935e-07 -6.09014e-06
15 1 3.69193 6.34323 18.8795 -8.37198e-07 -4.23408e-07 -9.04754e-06
16 1 4.90992 7.05336 19.0489 -4.28663e-07 9.7898e-07 6.11238e-06
17 1 7.33324 8.44027 22.5854 -1.68247e-06 1.63452e-06 2.61241e-06
18 1 3.6777 0.724872 22.6708 2.0571e-06 -5.95794e-07 5.68406e-06
19 1 7.33324 8.44027 19.2304 -1.68108e-06 1.63906e-06 -2.64296e-06
20 1 3.6777 0.724872 19.145 2.05888e-06 -5.88009e-07 -5.69556e-06
21 1 3.6965 2.14125 22.5854 -3.46342e-06 -1.06252e-06 2.8225e-06
22 1 4.93519 2.85641 22.4058 -8.4133e-07 -1.72404e-06 -9.17565e-06
23 1 3.6965 2.14125 19.2304 -3.4572e-06 -1.0593e-06 -2.83205e-06
24 1 4.93519 2.85641 19.41 -8.39273e-07 -1.72497e-06 9.16701e-06
25 1 4.87289 4.27033 22.3074 -4.95443e-06 -1.16759e-06 -4.34862e-06
26 1 5.79045 5.13165 21.6229 1.70681e-06 -1.84594e-07 1.67908e-06
27 1 4.87289 4.27033 19.5084 -4.95398e-06 -1.17708e-06 4.35615e-06
28 1 5.79045 5.13165 20.193 1.71155e-06 -1.9138e-07 -1.71271e-06
29 1 6.0776 6.35695 22.3074 -2.59652e-06 4.84942e-06 -4.29833e-06
30 1 7.33324 7.00995 22.4058 2.10366e-06 3.4316e-06 -8.96972e-06
31 1 6.0776 6.35695 19.5084 -2.59782e-06 4.84174e-06 4.24338e-06
32 1 7.33324 7.00995 19.41 2.09505e-06 3.43045e-06 8.90178e-06
33 1 4.8908 0.0244866 22.7969 -1.03134e-06 -4.58197e-07 -2.42769e-06
34 1 6.10926 0.736047 22.7669 1.54967e-06 -1.98261e-06 -4.60771e-06
35 1 4.8908 0.0244866 19.019 -1.02757e-06 -4.45431e-07 2.43005e-06
36 1 6.10926 0.736047 19.0489 1.5521e-06 -1.98112e-06 4.65684e-06
37 1 6.12853 2.09549 22.3074 -2.6949e-06 -1.64029e-06 -5.23299e-06
38 1 7.33324 2.45946 21.6229 1.43828e-06 1.70853e-06 1.88562e-06
39 1 6.12853 2.09549 19.5084 -2.70157e-06 -1.63899e-06 5.23274e-06
40 1 7.33324 2.45946 20.193 1.43601e-06 1.71064e-06 -1.92901e-06
41 1 8.87603 5.13165 21.6229 -1.34478e-06 -1.49544e-06 2.09505e-06
42 1 8.87603 5.13165 20.193 -1.37138e-06 -1.51223e-06 -2.14918e-06
43 1 8.58889 6.35695 22.3074 -2.31888e-07 1.50498e-06 -6.04061e-06
44 1 9.75656 7.05336 22.7669 3.59673e-06 7.66865e-07 -4.22497e-06
45 1 8.58889 6.35695 19.5084 -2.48867e-07 1.49404e-06 5.9745e-06
46 1 9.75656 7.05336 19.0489 3.59623e-06 7.76394e-07 4.20714e-06
47 1 7.33324 0.0363014 22.9363 -1.59434e-06 4.69051e-07 9.21278e-06
48 1 8.55722 0.736047 22.7669 1.05589e-06 -2.37686e-06 -5.65192e-06
49 1 7.33324 0.0363014 18.8795 -1.58833e-06 4.66739e-07 -9.08647e-06
50 1 8.55722 0.736047 19.0489 1.06445e-06 -2.38249e-06 5.67146e-06
51 1 8.53795 2.09549 22.3074 1.58344e-06 -3.58658e-06 -5.07146e-06
52 1 9.73129 2.85641 22.4058 5.06279e-06 -1.68356e-06 -8.78205e-06
53 1 8.53795 2.09549 19.5084 1.57667e-06 -3.58584e-06 5.01291e-06
54 1 9.73129 2.85641 19.41 5.05638e-06 -1.69191e-06 8.71085e-06
55 1 9.79359 4.27033 22.3074 1.63996e-06 8.76035e-08 -5.96918e-06
56 1 10.9805 4.93336 22.7669 3.25412e-06 1.67798e-06 -4.75277e-06
57 1 9.79359 4.27033 19.5084 1.62138e-06 7.58732e-08 5.90733e-06
58 1 10.9805 4.93336 19.0489 3.25874e-06 1.67444e-06 4.73454e-06
59 1 10.9746 6.34323 22.9363 -1.65411e-06 -5.38768e-08 9.1946e-06
60 1 12.206 7.05421 23.0153 2.23963e-06 -5.95553e-09 2.47066e-05
61 1 10.9746 6.34323 18.8795 -1.6401e-06 -4.33768e-08 -9.12322e-06
62 1 12.206 7.05421 18.8006 2.24993e-06 3.44769e-09 -2.45258e-05
