units           metal
atom_style      atomic
boundary        p p p
processors		  * * 1
read_data		    AA3.data
Reading data file ...
  triclinic box = (0 0 0) to (9.795473 8.4832305 49.951752) with tilt (4.8985647 -5.3998159e-06 0.0001022259)
WARNING: Triclinic box skew is large. LAMMPS will run inefficiently. (src/domain.cpp:220)
  1 by 1 by 1 MPI processor grid
  reading atoms ...
  62 atoms
  read_data CPU = 0.006 seconds
mass            1 12.011

# Define potentials
pair_style      lcbop
pair_coeff      * * C.lcbop C
Reading potential file C.lcbop with DATE: 2012-05-22


# Variable
variable        thermofrq equal 10
variable        Nloop equal 100     # number of loop to run
variable        binding equal pe


# Output
thermo          ${thermofrq}
thermo          10
thermo_style    custom step temp pe lx ly lz pxx pyy pzz fmax fnorm
thermo_modify   line one format float %20.16g
thermo_modify   flush yes norm no lost warn

# Minimize the system in loops
timestep        1.0e-3
variable        nr loop ${Nloop}
variable        nr loop 100
label           loopmin

# Minimize the with cg + box/relax
  fix             frb all box/relax tri 0.0 couple none
  min_style       cg
  min_modify      line quadratic
  minimize        0.0 1.0e-3 10000 10000
Neighbor list info ...
  update: every = 1 steps, delay = 0 steps, check = yes
  max neighbors/atom: 2000, page size: 100000
  master list distance cutoff = 8.6
  ghost atom cutoff = 8.6
  binsize = 4.3, bins = 4 2 12
  1 neighbor lists, perpetual/occasional/extra = 1 0 0
  (1) pair lcbop, perpetual
      attributes: full, newton on, ghost
      pair build: full/bin/ghost
      stencil: full/ghost/bin/3d
      bin: standard
WARNING: Energy due to 6 extra global DOFs will be included in minimizer energies
 (src/min.cpp:225)
Per MPI rank memory allocation (min/avg/max) = 5.162 | 5.162 | 5.162 Mbytes
   Step          Temp          PotEng           Lx             Ly             Lz            Pxx            Pyy            Pzz            Fmax          Fnorm     
         0                     0   -452.2995462977873          9.795473045    8.483230478099999        49.9517523336   -4009.051731495024   -3998.949033356381   -934.5979059799539   0.7926821231602597    5.450419764204965
        10                     0   -452.3204830727448    9.785677571955002    8.474769733149852    49.93854740937808      -2612.865905357   -2605.445121594586   -823.1488421600886   0.7977975271822516     5.43665919590774
        20                     0   -452.3368051095713    9.775882098910005    8.466312692318658    49.91854634060042   -1194.047513356646   -1189.888012549672   -688.0866532074627   0.8046703020371127    5.396772089555519
        30                     0   -452.3573653818244     9.76848604447858    8.459933101044157     49.8747966721686   -98.14814984834605   -97.69835555449865   -493.3955305701933   0.7790849624684608    5.233427629661979
        40                     0   -452.3830233897492    9.767919415902147    8.459441385741103    49.82484491983499      2.9037731717021    2.621332836464501   -330.9637928519808   0.7316826629749094    4.956967683057719
        50                     0    -452.418438513575    9.768009992014727    8.459510188417655    49.77489316750139   0.8490709490490168   0.5776665946381691    -175.675529735175   0.6569667720775139    4.550015770353841
        60                     0   -452.4984290612945     9.76786148664171    8.459357857408019    49.72494141516778   -2.608695748049385   -2.786392026702923   -12.13127409651529   0.5330399379921696    3.578031302217191
        70                     0   -452.6022367292736     9.76738942775914    8.458917813992947    49.75224500485183   -80.69185854823793   -80.77227490740832      30.823876148229   0.4361262311912681    2.327898117906104
        80                     0    -452.632082173715    9.766980040736316    8.458555655957863    49.78359435413007   -108.3240974553523    -108.387006472655    33.29136911737119   0.3848279155587324    1.989582167527618
        90                     0   -452.6545201732504    9.766305128158999    8.457965794538175    49.81737084381319    -97.4118109843192   -97.45851170978355    34.98625361250512   0.3378083155294199    1.730497745324954
       100                     0   -452.6720914994448     9.76561432219764    8.457363462120956    49.85209126814303   -83.21545355081108   -83.25200730721342    35.09250484314143   0.2951770399838271    1.517746927239857
       110                     0    -452.685817800371    9.765117005068481     8.45692954850124    49.88603892881871   -93.07289901701228   -93.10722293491283    32.59592256806566   0.2577626726125413    1.340591876108556
       120                     0   -452.6971997723139    9.764629034874064    8.456504071819467    49.92016889811924   -102.8710209520785   -102.9035298882955    29.48259661563141   0.2313686037712312    1.183889234176697
       130                     0   -452.7066174278588    9.763988056669668     8.45594626644745    49.95373318999374   -87.32446323062617   -87.35203782445295    27.75164142571585   0.2128574589651631     1.04664934955001
       140                     0   -452.7143691377986    9.763542575038098     8.45555793444607    49.98624859408714   -96.15348770200593   -96.18200939190366    24.24168390719774   0.1959019275394248   0.9272418395463236
       150                     0   -452.7211422683757    9.763062542883564    8.455139583409698    50.01916616397468   -99.10791568688585   -99.13482962832938    20.97122321067112   0.1797668888481837   0.8192621716635829
       160                     0   -452.7269161451507    9.762579152393695    8.454718294205696    50.05128107297715   -97.97311921122474   -97.99992126010987    18.00723991983022   0.1650174814793651   0.7261430571528854
       170                     0   -452.7320809134271    9.762045727734831    8.454253469142406    50.08358221192018   -88.01686015805222   -88.03973161166996    15.63969536895516   0.1512125359388687   0.6446946638074215
       180                     0   -452.7366608452541    9.761685786633597    8.453938777285678    50.11523014327953   -99.85231288411774   -99.87563723815855    11.90316157378665   0.1386114916307649   0.5765524635011305
       190                     0   -452.7409668030941    9.761279194749873    8.453583429427209    50.14698534442637   -103.0047917296712   -103.0298853805099    8.855990765857621   0.1332313883099558    0.519851632920391
       200                     0   -452.7448648432336    9.760881359528405    8.453235569815577    50.17653290350318   -101.1579646497036    -101.180205787577    6.489910737540716   0.1404921200314429   0.4769959276344146
       210                     0   -452.7490598415879    9.760528231372675    8.452925889846624    50.20806011732242   -107.6777761410334   -107.7009495187251    3.575367402999535   0.1454308606648896    0.440420339289814
       220                     0   -452.7534100692124    9.760179306354974    8.452619420330814    50.23898913155576   -112.2753771431621   -112.2883405244189    1.096578739927877   0.1471221908650255   0.4118764265756886
       230                     0   -452.7568742118622    9.759736139618477    8.452232202464662    50.26156010511598   -88.01873083719047   -88.02345113319979    1.406355988040582   0.1462537204131208   0.3945413150567665
       240                     0    -452.760330886254    9.759622153246175    8.452130517691714    50.28260649648341   -109.2037267920472   -109.2534834319013   -1.172846208312145   0.1436316967511366   0.3796966664296407
       250                     0   -452.7631634806713    9.759221026148829    8.451780327820252    50.29832985274517    -80.1630008293987   -80.18930700252719   0.1525221582306352    0.140733106850317   0.3693565981948838
       260                     0   -452.7671977988382    9.758978961854439    8.451566697273412    50.31979661605772   -86.38587978706737   -86.36791218528725   -1.090831485081627   0.1355794869784598   0.3551882544371373
       270                     0   -452.7714954208877    9.758473822848556    8.451125810383132    50.34119511238485   -57.23617287380537   -57.24958253303323   0.3097615773972394   0.1294065994622584   0.3419629538346488
       280                     0     -452.77621265183    9.758476574788773    8.451124376198951    50.36382525763678   -107.6994170072599   -107.7097499266192   -3.728885421941605   0.1216532916108915   0.3271638466002306
       290                     0   -452.7801876705716    9.758149601105885    8.450838340907913    50.38216217581427   -104.4308974589097   -104.4460621006573   -3.806054113656224   0.1151331349995765   0.3157694777468681
       300                     0   -452.7839754998322    9.756798035433743    8.449666553506997    50.39912998847845    47.35995759710866    47.18508291075423    6.680214445954116   0.1096470575511155   0.3057503278646969
       310                     0   -452.7857435493639    9.757217251931547    8.449969465082455    50.40743311663296    -33.7700518773367   -26.55520556241205     1.13044374146025   0.1064174082486247   0.2999835905035501
       320                     0   -452.7890499715649    9.757285486540807    8.450115258855194     50.4230980254678   -87.65600136889873   -91.54389895030637   -3.231261979538864   0.1007406315419384   0.2900687830894794
       330                     0   -452.7941840785392     9.75685367443455    8.449774288881001    50.44789786996446   -95.39128363496285   -103.7751566170905   -4.180589613667587   0.0923168794445135     0.27520645519983
       340                     0   -452.7968772768214    9.755685163732108    8.448621611588885    50.46076609176705    38.39776050780015    47.42673475321484    5.853052924034227   0.0888174663882649     0.26814250063588
       350                     0   -452.7992418991738    9.755422341322028    8.448331815448118    50.47264559934596    42.49593893236583    59.15159870318884    6.335030919748874  0.08525871496323781   0.2611494769258159
       360                     0   -452.8025482655554     9.75507130491655    8.448257015302639    50.48979382310644    36.93516985009556     24.7452247860965    4.789307267440122  0.08012675725732066   0.2509788700647259
       370                     0   -452.8068562074176    9.754571573643132    8.447792951444894    50.51298257505192    38.38451665837849    29.85951722673181    4.861536899207155  0.07360318342731714   0.2373878310842454
       380                     0   -452.8102145595305    9.754082683339663     8.44743032698489    50.53177310496429    48.43502372635459    32.14322240705961    5.173228850519373  0.06867087719828316   0.2261821954915786
       390                     0   -452.8122509628451    9.753586098906755    8.447248249144842    50.54354942100064    77.06148951846743    29.73048076237421    6.038188244075241  0.06577498418365427   0.2199164148298405
       400                     0   -452.8134090268517     9.75445333656886    8.447302213491398    50.55050626503812   -55.45872220526369   -15.90565198032138  -0.4428334004031645  0.06363943253843771   0.2145414733601732
       410                     0   -452.8145128439201    9.754405077421438    8.446706949390348    50.55701381924643   -58.37634366471494    50.13028462534085    1.787314518375291  0.06225832770902062   0.2114835099512434
       420                     0   -452.8157645001771    9.753941560715671    8.446965140989878    50.56455823313521   -30.11172521401849    -3.91656038542203   0.7980307677537269  0.06042308370245109   0.2063024281829584
       430                     0   -452.8179940256465    9.752832758918364    8.446540696127995    50.57823499049488    72.40985695473964    31.71305878993217    5.704329228608918  0.05762970671809273   0.1990452692224691
       440                     0   -452.8195422263514    9.752628591524376    8.446308224332956    50.58804536409902    69.73103537657235    35.90189233702647    5.689140365314775  0.05541354966053527   0.1926245450220906
       450                     0   -452.8199922246168    9.753329045335544    8.446096850491005    50.59103439445313   -24.03726976607534    44.01038913990308    2.559223409993439  0.05451831273913019   0.1905843749097487
       460                     0   -452.8208094179346    9.753736852091775    8.445980810978895    50.59648114959572   -91.40154537099771    34.99956510438621  -0.2581426932603855  0.05310904755901424   0.1872686287905411
       470                     0   -452.8216515827154    9.752105902925964    8.446826684592109    50.60199253967981    77.04332547961216   -77.77290786959435    1.725642921593836  0.05205649109917371   0.1846495029860438
       480                     0   -452.8222797101246    9.753259301607839    8.445652063697301    50.60613605140655    -58.0850107084242    57.67049852674606    1.705151894927291   0.0511580100431504   0.1814582667776603
       490                     0   -452.8231937364835    9.752389739183361    8.446137621566351    50.61226691923485    19.74191335163205   -18.74740202419228     1.71213190192756  0.04983890636699567   0.1769570042473574
       500                     0   -452.8246987945047     9.75216590022513    8.445561821364429    50.62264458332949    22.96247321320238     31.9406924136495    3.612549651427909   0.0477695972075883   0.1709311570896913
       510                     0   -452.8258001574281    9.752555700433277    8.445085051175099    50.63052971694219   -44.30154566878333    65.93493387216172    2.336754720480704  0.04600502864710784   0.1660502106995992
       520                     0   -452.8262000431328    9.751794477925412    8.445753633184959    50.63343574587947    27.08722506246137   -27.88827619757577     1.49036891456103   0.0453311739965872   0.1640170559669923
       530                     0   -452.8266965603708    9.752577132641205    8.444913665790681    50.63709069716279   -67.10660601303881    66.68171029053089    1.475084216134239  0.04456703168703777   0.1622454738113722
       540                     0   -452.8270904381347    9.751809180657352     8.44545311524222    50.63994340823495    7.814073936009249    -8.23854420585274    1.456044732606645  0.04397111218450878   0.1598194496096186
       550                     0   -452.8278671926486    9.751317970619624    8.445623077329824    50.64572234936299    44.82526561125673   -45.29492480097753    1.410128559295277  0.04276769100773242   0.1558823497792917
       560                     0   -452.8282111211595    9.752517864494038    8.444462674116988    50.64843681735654   -91.86492732341007    91.49701483541402    1.393978187966146  0.04220504195319938   0.1557572159851813
       570                     0   -452.8287929108175    9.751171142785276    8.445435004294623    50.65276552264717    41.10066170919533   -41.47405954684707    1.362533247225683  0.04130877228873894   0.1512263447152207
       580                     0    -452.829366919835    9.751863391587376    8.444636558360139    50.65724416282028   -46.00311976473494    45.17673830758508    1.311725246045161  0.04038292077979308   0.1486006331897012
       590                     0   -452.8297301030378    9.750752390928508    8.445464230262836    50.66017789314105    65.38258872722655   -65.92928992745968    1.301974247970907  0.03977955463023969   0.1477861286584202
       600                     0   -452.8303950152283    9.750363117703259    8.445557434267551    50.66550961994221    92.21355376142833   -92.59065886052342    1.267993353883832  0.03868390221042806      0.1446231430856
       610                     0   -452.8311348177634    9.751771304858208    8.444058168420877    50.67148594950717    -76.2858166508404    76.72388153540696      1.2537421242671  0.03746095741264954   0.1399211161545471
       620                     0   -452.8316471894434    9.750713979757242    8.444786420961572     50.6756775295542    25.29321696823447   -25.98970118748269    1.182658589772444  0.03659954929603951   0.1360949512829904
       630                     0   -452.8321517315635    9.750668414616289    8.444625919654873    50.67994875384676    17.85436241323722   -18.41392766907657     1.15468077594836   0.0357276980589171   0.1333538937288793
       640                     0   -452.8324977314596     9.75135073761018    8.443893164628617    50.68294922119959   -64.24932441510208    63.88420372754209    1.141153553998413  0.03511608776804337   0.1317921108008713
       650                     0   -452.8329047849418    9.750448901023342    8.444509619045707    50.68642367278534    22.60706219267194   -22.86175228648749    1.120391468850386  0.03440791811173144   0.1284618406874112
       660                     0   -452.8332985246644    9.750844107460143    8.444001320724979    50.68997815961549   -30.38600985238135    29.75406501914776    1.078587987356885  0.03368286834707293   0.1272206206325214
       670                     0   -452.8338452779136    9.751149176150715    8.443499486706598    50.69491554191175    -77.7478787686736    77.46733119580131    1.055955005570444  0.03267814111334097   0.1240781316662827
       680                     0   -452.8342929197041     9.74917530096277    8.444994286376794    50.69939467563628    121.1497460347734   -121.4528775853883    1.023711054441413  0.03176605819194922   0.1262550342630935
       690                     0   -452.8347106057012    9.750292749632223    8.443856733765486    50.70289016130516   -9.501019616960868    9.205680831333481   0.9967622149536908  0.03105457250627772   0.1179052142408784
       700                     0   -452.8351010438133     9.75028407123509    8.443686880655306    50.70652933837515   -19.54985667137365    19.27948261105137   0.9717206296443365  0.03031364879018303   0.1140453392872426
       710                     0   -452.8355666362954     9.74938973057607     8.44423735417765    50.71119934976417    62.30314572850379   -63.32473733300909   0.9117552664038707  0.02936010212295107   0.1127392408185823
       720                     0   -452.8362630947838    9.749116903011899    8.444119232290371    50.71804652161014    70.49381661339372   -69.81201523927297    1.377896350982949   0.0279402121058431   0.1076127200029311
       730                     0   -452.8365423784884    9.750630282691889    8.442664928388959    50.72111043942594   -101.6852030948338    101.0290116122218    1.234432432514083   0.0273157264784902    0.107761191275949
       740                     0   -452.8368700546444    9.749563420591816    8.443430016853142    50.72378652391506    3.376296844984132   -3.479513240099134    2.966208847300453  0.02665947093746199   0.1017506043030784
       750                     0   -452.8375135973399    9.748488058363703    8.443979409416507     50.7307452865177     96.8227156497323   -93.69588769827963     3.90581227516647  0.02518970929299388  0.09998775090086434
       760                     0    -452.837822909059    9.749764895194764    8.442697703078354    50.73375825481556   -50.28795113768194    55.24801473394323    4.815842245012798   0.0245221324817535  0.09469069325476109
       770                     0   -452.8380778971651    9.749128326392151    8.443454287218124    50.74109056446078   -2.377465570637435   -59.02562052635879   -12.05287703426868  0.02373931982135047  0.09216749339583159
       780                     0   -452.8385382732845    9.748712447886875    8.443396323153731    50.74823010948962    26.02229428185706   -68.10247400163931   -16.86751003983321  0.02268610032581872  0.08961372847799975
       790                     0   -452.8389778922208    9.748782139575097    8.442583004994386    50.74526415718466    18.48823548543353     32.6257932742982    13.52995746241645  0.02184153602526437  0.08326971522193895
       800                     0   -452.8392447413723    9.748637957354006    8.442605305764397    50.75279764714224    17.65415943359284    13.51923280283552  -0.7756518555523801  0.02110145505030114  0.08177575173532159
       810                     0   -452.8395675310176    9.747803252624042    8.442694181574986    50.75976916080225    99.16492595032361   -5.596326934416745   -7.452238427437411  0.02043923796634808  0.08037389722149427
       820                     0    -452.839772989547    9.749116047571292     8.44193433060366     50.7648851055338   -64.08342864332059    66.17652856899083    -18.0382259892109  0.01955515897394172  0.07967141478008838
       830                     0   -452.8399718451106    9.749166096098442    8.441813046976335    50.76219266214231   -75.36479405999749    75.28051432487314 -0.05994396576591502  0.01892632149814036  0.07678749085806065
       840                     0   -452.8401325905225    9.747662397082713    8.442994519257297    50.76444961249834    78.32812235380868   -78.74865581211191   0.0100719547002718  0.01844856395487565  0.07504428462293412
       850                     0   -452.8402783758418    9.748296870993817    8.442336623305033    50.76634237925038    3.648647478364942   -3.869299063445713   0.3640503385742941  0.01803059564493531  0.07189010183719018
       860                     0   -452.8404178604461    9.748860701860998    8.441736148513197    50.76832191058661   -63.71569893662122    63.62270935198657   0.6596042432356903  0.01759723803657504  0.07033759221189533
       870                     0   -452.8405577057715    9.748094570677798    8.442288225563846    50.77032646274977    11.51552876258843   -11.73060504131871   0.8602550112269272   0.0171627693438843  0.06809412555292924
       880                     0   -452.8406824146022    9.747590283065225    8.442617940373975     50.7722990407593    59.00544413933562   -59.17277564171551   0.7687641664397553  0.01675464672161331  0.06693198392334877
       890                     0   -452.8411539913077    9.748821649766748    8.441069434076574    50.78306255880339   -103.9444230180672    101.6473255792913   -6.605324097285921  0.01496031630745562  0.07324549215213634
       900                     0   -452.8414034421445    9.747617757111472    8.441929752141158     50.7846393475208    14.72921716116242   -15.32877398575396   -0.468289295200829  0.01422617993577671  0.05630797339700954
       910                     0   -452.8415481173669    9.747411279088388    8.441970642526458     50.7868415721826    27.87427821031444   -29.38363528184809   0.9182249650012256  0.01366125287543019  0.05389781918534398
       920                     0   -452.8416445973545    9.747781396231044    8.441542076025772    50.78873760530378   -18.14945599831461    17.30584322059277   0.7176885605576871  0.01327457727583234  0.05262851108498662
       930                     0   -452.8417375158284     9.74774741632538    8.441466203563786     50.7905887778563   -20.69120758536881    20.50638289471731   0.4759923709738318  0.01289962163484282  0.05081133897207511
       940                     0   -452.8418261191647    9.747253654830683    8.441790594451055    50.79240464746857    25.88723755771893   -26.00585230239094   0.4473598133567646  0.01251390260920202  0.05012499206970817
       950                     0   -452.8419101396574    9.747172016421322    8.441762324040788    50.79415446321524    28.51072405232112   -28.63712079596266   0.3863373414056483  0.01214341227487745  0.04908174832720916
       960                     0   -452.8419840206653    9.747499306133749    8.441395610400269    50.79561531264099   -11.70701235404402    11.59911425566173    0.349466056359181   0.0118327606159247  0.04624394715357272
       970                     0   -452.8422446401898    9.747189161815175    8.441327876785758     50.8014992046679   0.7900382364349581   -0.790561313756222   0.1343812825189704   0.0105823107678418  0.04154885452047265
       980                     0   -452.8424020038159    9.746872520119757    8.441370125925243    50.80581672468983    20.38559083756738   -20.37182144242677   -1.202822573091991 0.009739441644054492  0.03979262220486594
       990                     0   -452.8424808671148    9.747199987004302    8.440977534245878    50.80711677061612   -21.52162713090738    21.37488194379135    1.141681214061445 0.009298085250753152  0.03747514935424308
      1000                     0   -452.8425219916947    9.747109767809695     8.44099047151442    50.80832743279315   -15.86964934024512     15.7449249609588   0.7203817366758882  0.00906391846413232  0.03639581605598236
      1010                     0   -452.8425584245941    9.746665932828005    8.441313586646752    50.80944157541717    27.90840651501129   -27.99636848599873   0.4158952677920447 0.008842547276189716   0.0359494950499534
      1020                     0   -452.8425941552439    9.746786333770626     8.44115017903875    50.81047524638964    11.35256579954664   -11.44553593369492   0.2938085536882452 0.008625998232093035  0.03514336401395223
      1030                     0   -452.8426272308265    9.747182197066603     8.44075032943727     50.8114502389254     -34.571922207242    34.49097852502905   0.2529594188339966 0.008416493758938992  0.03455229182603156
      1040                     0   -452.8426586391842    9.746845420413351    8.440987867076826    50.81236860724486    -1.84326343072686    1.756461936015513   0.2404594751260457 0.008217098403519252  0.03375654976895922
      1050                     0   -452.8426901684009    9.746501716446069    8.441230147350547    50.81330357586818    31.55605554620359   -31.63069394932701   0.2343994022923851 0.008013573735406676   0.0327445809185382
      1060                     0   -452.8427190985889     9.74683060681304    8.440893272094032    50.81418230760814   -6.891955183706257    6.811607896401234   0.2284537349371487 0.007822035211472067  0.03186113963269444
      1070                     0   -452.8427491576885    9.746935462314628     8.44074757812739    50.81510670169575   -21.51382849174936    21.43506358940202    0.222585168823907 0.007620370014951416  0.03070079948046998
      1080                     0   -452.8427765326686    9.746603825446863    8.440982309631194    50.81598864263273    10.76694011087846   -10.84014494232975   0.2170168921180496  0.00742782127140304  0.02993110691899474
      1090                     0   -452.8428042521898    9.746530383383973    8.440992028344134    50.81689318749595     15.3035457320684   -15.37493422595645   0.2110057053198717 0.007230166592071596  0.02896281935049637
      1100                     0   -452.8428293386787    9.746776407192256    8.440727464594124    50.81775660065745   -14.22831497481113    14.15682877024858   0.2052614191838792 0.007041324837217311  0.02843191560351886
      1110                     0   -452.8428541040774    9.746739604434262    8.440708113309114      50.818613874519   -13.45183712678844    13.38002896184373    0.199649488409157 0.006853651083104012  0.02764314700375823
      1120                     0   -452.8428761011503    9.746384734362303    8.440966927169434    50.81942372427945    21.55960951786464   -21.62178938744034   0.1946436694021343 0.006676258786317973  0.02735555140519118
      1130                     0   -452.8428976327536    9.746466023141558    8.440849479261972    50.82020935696995    9.943700505336924   -10.01207132370069   0.1890999115385504 0.006503994345954167  0.02670634640563849
      1140                     0   -452.8429171539608    9.746789747790999    8.440524376985902    50.82095442683767   -27.48546325184823    27.42338237162869   0.1844009361802496 0.006340530309580789  0.02625671477773733
      1150                     0   -452.8429355581835    9.746527059203896     8.44070977917208    50.82165500701922    -1.95710571093119    1.891470158132746   0.1796900236205448 0.006186676065198987  0.02561058894020677
      1160                     0   -452.8430869912131    9.746211503317754    8.440585342932074    50.82823996324129    7.255766799442586   -7.331560864899595   0.1347887435901218 0.004736618039957508  0.01882653797372073
      1170                     0   -452.8431498417299      9.7462700732841    8.440323806390706    50.83168409967223   -12.03040750957901    12.01089521549135   0.1144138612873821 0.003969191564600349  0.01630874459146258
      1180                     0   -452.8431592863539     9.74619129420703    8.440356787441052    50.83225526031491   -5.745976937437866    5.708580685347458   0.1139442025570451 0.003847935358009702  0.01589256830140598
      1190                     0   -452.8431667209767    9.745961934746198    8.440526446064101    50.83273012644925    16.99353450490808   -17.02590495679972   0.1054493489878489 0.003742307531046402  0.01561318686651873
      1200                     0   -452.8431732613826    9.746103490566396    8.440378601395548    50.83313760786116   0.2876504678478312  -0.3259296787277702   0.1053203202543199 0.003650861984039661  0.01522113150362801
      1210                     0    -452.843179614077    9.746224813238669    8.440248636651356    50.83354218386286   -14.23785346488947     14.2006720432455   0.1020463198961591 0.003560891020948143  0.01467447145621109
      1220                     0   -452.8431852743337    9.746042378140498    8.440383563476241    50.83391605690809    3.866011004669145   -3.901221706010017  0.09959585068056533 0.003477716257290348  0.01428521691087736
      1230                     0   -452.8431911840642    9.745976754576928    8.440416098263833    50.83430949222523    9.390947548209446   -9.424680897946802  0.09723345090738822 0.003390036007873659  0.01375686940072476
      1240                     0    -452.843196534781    9.746101883731781    8.440284558108521    50.83468497851714   -5.434743193841644    5.400542210389589  0.09468386883623889 0.003306380819266902  0.01342790244733829
      1250                     0   -452.8432019690322    9.746100453453005    8.440261971069244    50.83507052899049   -6.752788863894841    6.719141169300495  0.09224993095363754 0.003220457956678024  0.01299898358227117
      1260                     0   -452.8432068834941    9.745956155679911     8.44036406748002    50.83544027444959      7.2810339444844    -7.31211003199805  0.08992727460086361 0.003138043534338025  0.01279073327426261
      1270                     0   -452.8432117658708    9.745956174281512     8.44034128199853     50.8358083940216    5.872636012246855   -5.903740769767471  0.08752001416821953 0.003055962415384056  0.01245316225022375
      1280                     0   -452.8432161229584    9.746098419399553    8.440196497676062    50.83615735419259   -10.68608079410413    10.65539824186994  0.08525358269802039 0.002978131246965054  0.01231496037337382
      1290                     0   -452.8432203674638    9.746020635317581    8.440242996285624    50.83649428557291   -3.649238108775423    3.618454096728136  0.08306898448949648 0.002902957381874405  0.01201962056779951
      1300                     0   -452.8432242930772    9.745857132856649    8.440364460206485    50.83681889043969     12.6089961445708   -12.63589628920856  0.08109022533125353 0.002830529731683296  0.01178592331311882
      1310                     0   -452.8432279825217    9.745964540523675    8.440252530391037     50.8371241409571 -0.05587771836668688  0.02707430679517912  0.07900976438086758 0.002762384617059577  0.01148072682495627
      1320                     0   -452.8432316973332     9.74604942672527      8.4401596797205       50.83743587437    -10.3352214192769    10.30685274543721  0.07700027837170098 0.002692778995508766  0.01107539099466577
      1330                     0   -452.8432350643505    9.745915853914722    8.440257166875217    50.83772882718873    2.838278798021049   -2.864932241386478  0.07516397871548235 0.002627354235063828  0.01076835740463349
      1340                     0   -452.8432385534515    9.745867565053867    8.440279879531007    50.83803646632191    6.826932161391884   -6.852490876847145  0.07319184925277041 0.002558631422512725  0.01037321756123391
      1350                     0   -452.8433012685554    9.745488835548187    8.439907096474904    50.84923716314205    4.098601727297718   -4.087825453689151 0.001748247168952632 0.0002308285724108503  0.00153110766136934
      1353                     0   -452.8433013351784    9.745526737227257    8.439874333372387    50.84923738415529  0.04131062222045388 -0.04240211184279588 0.0009115209005888926 5.755964107587077e-05 0.000279145624215294
Loop time of 0.398643 on 1 procs for 1353 steps with 62 atoms

133.9% CPU use with 1 MPI tasks x no OpenMP threads

Minimization stats:
  Stopping criterion = force tolerance
  Energy initial, next-to-last, final = 
     -452.299546297787  -452.843301334405  -452.843301335178
  Force two-norm initial, final = 15.8363 0.00071793974
  Force max component initial, final = 10.386488 0.00064294847
  Final line search alpha, max atom move = 0.066735103 4.2907232e-05
  Iterations, force evaluations = 1353 1890

MPI task timing breakdown:
Section |  min time  |  avg time  |  max time  |%varavg| %total
---------------------------------------------------------------
Pair    | 0.30682    | 0.30682    | 0.30682    |   0.0 | 76.97
Neigh   | 0          | 0          | 0          |   0.0 |  0.00
Comm    | 0.002403   | 0.002403   | 0.002403   |   0.0 |  0.60
Output  | 0.081093   | 0.081093   | 0.081093   |   0.0 | 20.34
Modify  | 0          | 0          | 0          |   0.0 |  0.00
Other   |            | 0.008325   |            |       |  2.09

Nlocal:             62 ave          62 max          62 min
Histogram: 1 0 0 0 0 0 0 0 0 0
Nghost:            546 ave         546 max         546 min
Histogram: 1 0 0 0 0 0 0 0 0 0
Neighs:              0 ave           0 max           0 min
Histogram: 1 0 0 0 0 0 0 0 0 0
FullNghs:         9800 ave        9800 max        9800 min
Histogram: 1 0 0 0 0 0 0 0 0 0

Total # of neighbors = 9800
Ave neighs/atom = 158.06452
Neighbor list builds = 0
Dangerous builds = 0

# Minimize the with fire
  unfix           frb
  min_style       fire
  minimize        0.0 1.0e-3 10000 10000
  Parameters for fire:
    dmax  delaystep dtgrow dtshrink alpha0 alphashrink tmax tmin   integrator   halfstepback   abcfire  
     0.1     20      1.1     0.5     0.25     0.99      10  0.02 eulerimplicit      yes          no     
Per MPI rank memory allocation (min/avg/max) = 4.037 | 4.037 | 4.037 Mbytes
   Step          Temp          PotEng           Lx             Ly             Lz            Pxx            Pyy            Pzz            Fmax          Fnorm     
      1353                     0   -452.8433013351785    9.745526737227257    8.439874333372387    50.84923738415529  0.04131062207008327 -0.04240211214367715 0.0009115208820132737 5.755964109502515e-05 0.0002791456241995191
      1354  3.969349463054282e-09   -452.8433013352396    9.745526737227257    8.439874333372387    50.84923738415529  0.04029591839530029 -0.04215937369302625 0.001036801484755128 5.730095641731572e-05 0.0002728409069985941
Loop time of 0.000932721 on 1 procs for 1 steps with 62 atoms

24.6% CPU use with 1 MPI tasks x no OpenMP threads

Minimization stats:
  Stopping criterion = force tolerance
  Energy initial, next-to-last, final = 
     -452.843301335179  -452.843301335179   -452.84330133524
  Force two-norm initial, final = 0.00027914562 0.00027284091
  Force max component initial, final = 5.7559641e-05 5.7300956e-05
  Final line search alpha, max atom move = 0 0
  Iterations, force evaluations = 1 2

MPI task timing breakdown:
Section |  min time  |  avg time  |  max time  |%varavg| %total
---------------------------------------------------------------
Pair    | 0.00047967 | 0.00047967 | 0.00047967 |   0.0 | 51.43
Neigh   | 0          | 0          | 0          |   0.0 |  0.00
Comm    | 3.598e-06  | 3.598e-06  | 3.598e-06  |   0.0 |  0.39
Output  | 0          | 0          | 0          |   0.0 |  0.00
Modify  | 0          | 0          | 0          |   0.0 |  0.00
Other   |            | 0.0004495  |            |       | 48.19

Nlocal:             62 ave          62 max          62 min
Histogram: 1 0 0 0 0 0 0 0 0 0
Nghost:            546 ave         546 max         546 min
Histogram: 1 0 0 0 0 0 0 0 0 0
Neighs:              0 ave           0 max           0 min
Histogram: 1 0 0 0 0 0 0 0 0 0
FullNghs:         9974 ave        9974 max        9974 min
Histogram: 1 0 0 0 0 0 0 0 0 0

Total # of neighbors = 9974
Ave neighs/atom = 160.87097
Neighbor list builds = 0
Dangerous builds = 0

next nr
jump ${simname}.in loopmin
jump LCBOP.in loopmin

# Minimize the with cg + box/relax
  fix             frb all box/relax tri 0.0 couple none
  min_style       cg
  min_modify      line quadratic
  minimize        0.0 1.0e-3 10000 10000
WARNING: Energy due to 6 extra global DOFs will be included in minimizer energies
 (src/min.cpp:225)
Per MPI rank memory allocation (min/avg/max) = 5.162 | 5.162 | 5.162 Mbytes
   Step          Temp          PotEng           Lx             Ly             Lz            Pxx            Pyy            Pzz            Fmax          Fnorm     
      1354  3.969349463054282e-09   -452.8433013352396    9.745526737227257    8.439874333372387    50.84923738415529  0.04029591839496138 -0.04215937386437917 0.001036801585807612 5.730095646054633e-05 0.000272840907067657
      1355  3.969349463054282e-09   -452.8433013353915    9.745527330919867    8.439873795442727    50.84923746385724 -0.02312360204728514  0.02446954866978151 0.0009980288359570601 5.550140457162697e-05 0.0002636058197726775
Loop time of 0.000951133 on 1 procs for 1 steps with 62 atoms

28.6% CPU use with 1 MPI tasks x no OpenMP threads

Minimization stats:
  Stopping criterion = force tolerance
  Energy initial, next-to-last, final = 
      -452.84330133524   -452.84330133524  -452.843301335391
  Force two-norm initial, final = 0.00070451293 0.00029168254
  Force max component initial, final = 0.00063143635 8.8656535e-05
  Final line search alpha, max atom move = 0.15836909 1.4040455e-05
  Iterations, force evaluations = 1 2

MPI task timing breakdown:
Section |  min time  |  avg time  |  max time  |%varavg| %total
---------------------------------------------------------------
Pair    | 0.00056251 | 0.00056251 | 0.00056251 |   0.0 | 59.14
Neigh   | 0          | 0          | 0          |   0.0 |  0.00
Comm    | 4.969e-06  | 4.969e-06  | 4.969e-06  |   0.0 |  0.52
Output  | 0          | 0          | 0          |   0.0 |  0.00
Modify  | 0          | 0          | 0          |   0.0 |  0.00
Other   |            | 0.0003837  |            |       | 40.34

Nlocal:             62 ave          62 max          62 min
Histogram: 1 0 0 0 0 0 0 0 0 0
Nghost:            546 ave         546 max         546 min
Histogram: 1 0 0 0 0 0 0 0 0 0
Neighs:              0 ave           0 max           0 min
Histogram: 1 0 0 0 0 0 0 0 0 0
FullNghs:         9974 ave        9974 max        9974 min
Histogram: 1 0 0 0 0 0 0 0 0 0

Total # of neighbors = 9974
Ave neighs/atom = 160.87097
Neighbor list builds = 0
Dangerous builds = 0

# Minimize the with fire
  unfix           frb
  min_style       fire
  minimize        0.0 1.0e-3 10000 10000
  Parameters for fire:
    dmax  delaystep dtgrow dtshrink alpha0 alphashrink tmax tmin   integrator   halfstepback   abcfire  
     0.1     20      1.1     0.5     0.25     0.99      10  0.02 eulerimplicit      yes          no     
Per MPI rank memory allocation (min/avg/max) = 4.037 | 4.037 | 4.037 Mbytes
   Step          Temp          PotEng           Lx             Ly             Lz            Pxx            Pyy            Pzz            Fmax          Fnorm     
      1355                     0   -452.8433013353916    9.745527330919867    8.439873795442727    50.84923746385724 -0.02312360673763061  0.02446954481686047 0.0009980134790115894 5.550140457273849e-05 0.0002636058198138526
      1356  3.539709942539632e-09   -452.8433013354472    9.745527330919867    8.439873795442727    50.84923746385724 -0.02326228425780125   0.0238083375235918  0.00111205081372531 5.531885607132098e-05 0.0002592532303739592
Loop time of 0.000796807 on 1 procs for 1 steps with 62 atoms

30.5% CPU use with 1 MPI tasks x no OpenMP threads

Minimization stats:
  Stopping criterion = force tolerance
  Energy initial, next-to-last, final = 
     -452.843301335392  -452.843301335392  -452.843301335447
  Force two-norm initial, final = 0.00026360582 0.00025925323
  Force max component initial, final = 5.5501405e-05 5.5318856e-05
  Final line search alpha, max atom move = 0 0
  Iterations, force evaluations = 1 2

MPI task timing breakdown:
Section |  min time  |  avg time  |  max time  |%varavg| %total
---------------------------------------------------------------
Pair    | 0.00049222 | 0.00049222 | 0.00049222 |   0.0 | 61.77
Neigh   | 0          | 0          | 0          |   0.0 |  0.00
Comm    | 3.815e-06  | 3.815e-06  | 3.815e-06  |   0.0 |  0.48
Output  | 0          | 0          | 0          |   0.0 |  0.00
Modify  | 0          | 0          | 0          |   0.0 |  0.00
Other   |            | 0.0003008  |            |       | 37.75

Nlocal:             62 ave          62 max          62 min
Histogram: 1 0 0 0 0 0 0 0 0 0
Nghost:            546 ave         546 max         546 min
Histogram: 1 0 0 0 0 0 0 0 0 0
Neighs:              0 ave           0 max           0 min
Histogram: 1 0 0 0 0 0 0 0 0 0
FullNghs:         9974 ave        9974 max        9974 min
Histogram: 1 0 0 0 0 0 0 0 0 0

Total # of neighbors = 9974
Ave neighs/atom = 160.87097
Neighbor list builds = 0
Dangerous builds = 0

next nr
jump ${simname}.in loopmin
jump LCBOP.in loopmin

# Minimize the with cg + box/relax
  fix             frb all box/relax tri 0.0 couple none
  min_style       cg
  min_modify      line quadratic
  minimize        0.0 1.0e-3 10000 10000
WARNING: Energy due to 6 extra global DOFs will be included in minimizer energies
 (src/min.cpp:225)
Per MPI rank memory allocation (min/avg/max) = 5.162 | 5.162 | 5.162 Mbytes
   Step          Temp          PotEng           Lx             Ly             Lz            Pxx            Pyy            Pzz            Fmax          Fnorm     
      1356  3.539709942539632e-09   -452.8433013354474    9.745527330919867    8.439873795442727    50.84923746385724 -0.02326228428026404  0.02380833722485372 0.001112050752488167 5.531885608426896e-05 0.000259253230399719
      1357  3.539709942539632e-09   -452.8433013355221    9.745526133541581    8.439874856743744    50.84923776251701   0.1028836140958568  -0.1089602205709123 0.0002796703200171585 5.561758541378298e-05 0.0002536728490819588
Loop time of 0.00132462 on 1 procs for 1 steps with 62 atoms

35.6% CPU use with 1 MPI tasks x no OpenMP threads

Minimization stats:
  Stopping criterion = force tolerance
  Energy initial, next-to-last, final = 
     -452.843301335447  -452.843301335447  -452.843301335522
  Force two-norm initial, final = 0.00028691717 0.00058009885
  Force max component initial, final = 8.6894102e-05 0.0003451516
  Final line search alpha, max atom move = 1 0.0003451516
  Iterations, force evaluations = 1 2

MPI task timing breakdown:
Section |  min time  |  avg time  |  max time  |%varavg| %total
---------------------------------------------------------------
Pair    | 0.00095133 | 0.00095133 | 0.00095133 |   0.0 | 71.82
Neigh   | 0          | 0          | 0          |   0.0 |  0.00
Comm    | 9.127e-06  | 9.127e-06  | 9.127e-06  |   0.0 |  0.69
Output  | 0          | 0          | 0          |   0.0 |  0.00
Modify  | 0          | 0          | 0          |   0.0 |  0.00
Other   |            | 0.0003642  |            |       | 27.49

Nlocal:             62 ave          62 max          62 min
Histogram: 1 0 0 0 0 0 0 0 0 0
Nghost:            546 ave         546 max         546 min
Histogram: 1 0 0 0 0 0 0 0 0 0
Neighs:              0 ave           0 max           0 min
Histogram: 1 0 0 0 0 0 0 0 0 0
FullNghs:         9974 ave        9974 max        9974 min
Histogram: 1 0 0 0 0 0 0 0 0 0

Total # of neighbors = 9974
Ave neighs/atom = 160.87097
Neighbor list builds = 0
Dangerous builds = 0

# Minimize the with fire
  unfix           frb
  min_style       fire
  minimize        0.0 1.0e-3 10000 10000
  Parameters for fire:
    dmax  delaystep dtgrow dtshrink alpha0 alphashrink tmax tmin   integrator   halfstepback   abcfire  
     0.1     20      1.1     0.5     0.25     0.99      10  0.02 eulerimplicit      yes          no     
Per MPI rank memory allocation (min/avg/max) = 4.037 | 4.037 | 4.037 Mbytes
   Step          Temp          PotEng           Lx             Ly             Lz            Pxx            Pyy            Pzz            Fmax          Fnorm     
      1357                     0   -452.8433013355221    9.745526133541581    8.439874856743744    50.84923776251701   0.1028836110596954  -0.1089602235885527 0.0002796550604350252 5.561758541840949e-05 0.0002536728491111046
      1358  3.277975177677441e-09   -452.8433013355742    9.745526133541581    8.439874856743744    50.84923776251701   0.1010441091145713  -0.1079628957243846 0.0003787225425482129 5.542830279224977e-05 0.0002505051010284106
Loop time of 0.000970936 on 1 procs for 1 steps with 62 atoms

61.9% CPU use with 1 MPI tasks x no OpenMP threads

Minimization stats:
  Stopping criterion = force tolerance
  Energy initial, next-to-last, final = 
     -452.843301335522  -452.843301335522  -452.843301335574
  Force two-norm initial, final = 0.00025367285 0.0002505051
  Force max component initial, final = 5.5617585e-05 5.5428303e-05
  Final line search alpha, max atom move = 0 0
  Iterations, force evaluations = 1 2

MPI task timing breakdown:
Section |  min time  |  avg time  |  max time  |%varavg| %total
---------------------------------------------------------------
Pair    | 0.00051917 | 0.00051917 | 0.00051917 |   0.0 | 53.47
Neigh   | 0          | 0          | 0          |   0.0 |  0.00
Comm    | 4.113e-06  | 4.113e-06  | 4.113e-06  |   0.0 |  0.42
Output  | 0          | 0          | 0          |   0.0 |  0.00
Modify  | 0          | 0          | 0          |   0.0 |  0.00
Other   |            | 0.0004477  |            |       | 46.11

Nlocal:             62 ave          62 max          62 min
Histogram: 1 0 0 0 0 0 0 0 0 0
Nghost:            546 ave         546 max         546 min
Histogram: 1 0 0 0 0 0 0 0 0 0
Neighs:              0 ave           0 max           0 min
Histogram: 1 0 0 0 0 0 0 0 0 0
FullNghs:         9974 ave        9974 max        9974 min
Histogram: 1 0 0 0 0 0 0 0 0 0

Total # of neighbors = 9974
Ave neighs/atom = 160.87097
Neighbor list builds = 0
Dangerous builds = 0

next nr
jump ${simname}.in loopmin
jump LCBOP.in loopmin

# Minimize the with cg + box/relax
  fix             frb all box/relax tri 0.0 couple none
  min_style       cg
  min_modify      line quadratic
  minimize        0.0 1.0e-3 10000 10000
WARNING: Energy due to 6 extra global DOFs will be included in minimizer energies
 (src/min.cpp:225)
Per MPI rank memory allocation (min/avg/max) = 5.162 | 5.162 | 5.162 Mbytes
   Step          Temp          PotEng           Lx             Ly             Lz            Pxx            Pyy            Pzz            Fmax          Fnorm     
      1358  3.277975177677441e-09   -452.8433013355742    9.745526133541581    8.439874856743744    50.84923776251701   0.1010441093373997  -0.1079628956666015 0.0003787226958135161 5.542830280132107e-05 0.0002505051011126282
      1359  3.277975177677441e-09   -452.8433013356604    9.745527332134825    8.439873747655541    50.84923778595626 -0.02596745153921299  0.03024278667800983 0.0007603044369288972 5.472367417344581e-05 0.0002462756438729598
Loop time of 0.000882797 on 1 procs for 1 steps with 62 atoms

69.6% CPU use with 1 MPI tasks x no OpenMP threads

Minimization stats:
  Stopping criterion = force tolerance
  Energy initial, next-to-last, final = 
     -452.843301335574  -452.843301335574   -452.84330133566
  Force two-norm initial, final = 0.000572796 0.00027377885
  Force max component initial, final = 0.00034108271 7.8947288e-05
  Final line search alpha, max atom move = 0.29318402 2.3146083e-05
  Iterations, force evaluations = 1 2

MPI task timing breakdown:
Section |  min time  |  avg time  |  max time  |%varavg| %total
---------------------------------------------------------------
Pair    | 0.00051249 | 0.00051249 | 0.00051249 |   0.0 | 58.05
Neigh   | 0          | 0          | 0          |   0.0 |  0.00
Comm    | 3.892e-06  | 3.892e-06  | 3.892e-06  |   0.0 |  0.44
Output  | 0          | 0          | 0          |   0.0 |  0.00
Modify  | 0          | 0          | 0          |   0.0 |  0.00
Other   |            | 0.0003664  |            |       | 41.51

Nlocal:             62 ave          62 max          62 min
Histogram: 1 0 0 0 0 0 0 0 0 0
Nghost:            546 ave         546 max         546 min
Histogram: 1 0 0 0 0 0 0 0 0 0
Neighs:              0 ave           0 max           0 min
Histogram: 1 0 0 0 0 0 0 0 0 0
FullNghs:         9974 ave        9974 max        9974 min
Histogram: 1 0 0 0 0 0 0 0 0 0

Total # of neighbors = 9974
Ave neighs/atom = 160.87097
Neighbor list builds = 0
Dangerous builds = 0

# Minimize the with fire
  unfix           frb
  min_style       fire
  minimize        0.0 1.0e-3 10000 10000
  Parameters for fire:
    dmax  delaystep dtgrow dtshrink alpha0 alphashrink tmax tmin   integrator   halfstepback   abcfire  
     0.1     20      1.1     0.5     0.25     0.99      10  0.02 eulerimplicit      yes          no     
Per MPI rank memory allocation (min/avg/max) = 4.037 | 4.037 | 4.037 Mbytes
   Step          Temp          PotEng           Lx             Ly             Lz            Pxx            Pyy            Pzz            Fmax          Fnorm     
      1359                     0   -452.8433013356604    9.745527332134825    8.439873747655541    50.84923778595626  -0.0259674538897188  0.03024278428831113 0.0007602891083556559 5.472367413543412e-05 0.0002462756438929126
      1360  3.089588313167326e-09   -452.8433013357082    9.745527332134825    8.439873747655541    50.84923778595626 -0.02600347688649586  0.02940637127202702 0.000858303162932177 5.458340814397432e-05 0.0002440503903560296
Loop time of 0.000850568 on 1 procs for 1 steps with 62 atoms

73.4% CPU use with 1 MPI tasks x no OpenMP threads

Minimization stats:
  Stopping criterion = force tolerance
  Energy initial, next-to-last, final = 
      -452.84330133566   -452.84330133566  -452.843301335708
  Force two-norm initial, final = 0.00024627564 0.00024405039
  Force max component initial, final = 5.4723674e-05 5.4583408e-05
  Final line search alpha, max atom move = 0 0
  Iterations, force evaluations = 1 2

MPI task timing breakdown:
Section |  min time  |  avg time  |  max time  |%varavg| %total
---------------------------------------------------------------
Pair    | 0.00053331 | 0.00053331 | 0.00053331 |   0.0 | 62.70
Neigh   | 0          | 0          | 0          |   0.0 |  0.00
Comm    | 5.643e-06  | 5.643e-06  | 5.643e-06  |   0.0 |  0.66
Output  | 0          | 0          | 0          |   0.0 |  0.00
Modify  | 0          | 0          | 0          |   0.0 |  0.00
Other   |            | 0.0003116  |            |       | 36.64

Nlocal:             62 ave          62 max          62 min
Histogram: 1 0 0 0 0 0 0 0 0 0
Nghost:            546 ave         546 max         546 min
Histogram: 1 0 0 0 0 0 0 0 0 0
Neighs:              0 ave           0 max           0 min
Histogram: 1 0 0 0 0 0 0 0 0 0
FullNghs:         9974 ave        9974 max        9974 min
Histogram: 1 0 0 0 0 0 0 0 0 0

Total # of neighbors = 9974
Ave neighs/atom = 160.87097
Neighbor list builds = 0
Dangerous builds = 0

next nr
jump ${simname}.in loopmin
jump LCBOP.in loopmin

# Minimize the with cg + box/relax
  fix             frb all box/relax tri 0.0 couple none
  min_style       cg
  min_modify      line quadratic
  minimize        0.0 1.0e-3 10000 10000
WARNING: Energy due to 6 extra global DOFs will be included in minimizer energies
 (src/min.cpp:225)
Per MPI rank memory allocation (min/avg/max) = 5.162 | 5.162 | 5.162 Mbytes
   Step          Temp          PotEng           Lx             Ly             Lz            Pxx            Pyy            Pzz            Fmax          Fnorm     
      1360  3.089588313167326e-09   -452.8433013357082    9.745527332134825    8.439873747655541    50.84923778595626 -0.02600347703349099  0.02940637109177846 0.0008583031493591431 5.458340813311712e-05 0.0002440503903197932
      1361  3.089588313167326e-09   -452.8433013357722    9.745526092816307    8.439874961389496    50.84923799939025   0.1024771409052366  -0.1247153259682595 -0.0004057765434956038 5.497094853836862e-05 0.000242469042515892
Loop time of 0.00116897 on 1 procs for 1 steps with 62 atoms

58.7% CPU use with 1 MPI tasks x no OpenMP threads

Minimization stats:
  Stopping criterion = force tolerance
  Energy initial, next-to-last, final = 
     -452.843301335708  -452.843301335708  -452.843301335772
  Force two-norm initial, final = 0.00027088074 0.00054877082
  Force max component initial, final = 7.6763858e-05 0.00032556309
  Final line search alpha, max atom move = 1 0.00032556309
  Iterations, force evaluations = 1 2

MPI task timing breakdown:
Section |  min time  |  avg time  |  max time  |%varavg| %total
---------------------------------------------------------------
Pair    | 0.00058366 | 0.00058366 | 0.00058366 |   0.0 | 49.93
Neigh   | 0          | 0          | 0          |   0.0 |  0.00
Comm    | 5.41e-06   | 5.41e-06   | 5.41e-06   |   0.0 |  0.46
Output  | 0          | 0          | 0          |   0.0 |  0.00
Modify  | 0          | 0          | 0          |   0.0 |  0.00
Other   |            | 0.0005799  |            |       | 49.61

Nlocal:             62 ave          62 max          62 min
Histogram: 1 0 0 0 0 0 0 0 0 0
Nghost:            546 ave         546 max         546 min
Histogram: 1 0 0 0 0 0 0 0 0 0
Neighs:              0 ave           0 max           0 min
Histogram: 1 0 0 0 0 0 0 0 0 0
FullNghs:         9974 ave        9974 max        9974 min
Histogram: 1 0 0 0 0 0 0 0 0 0

Total # of neighbors = 9974
Ave neighs/atom = 160.87097
Neighbor list builds = 0
Dangerous builds = 0

# Minimize the with fire
  unfix           frb
  min_style       fire
  minimize        0.0 1.0e-3 10000 10000
  Parameters for fire:
    dmax  delaystep dtgrow dtshrink alpha0 alphashrink tmax tmin   integrator   halfstepback   abcfire  
     0.1     20      1.1     0.5     0.25     0.99      10  0.02 eulerimplicit      yes          no     
Per MPI rank memory allocation (min/avg/max) = 4.037 | 4.037 | 4.037 Mbytes
   Step          Temp          PotEng           Lx             Ly             Lz            Pxx            Pyy            Pzz            Fmax          Fnorm     
      1361                     0   -452.8433013357723    9.745526092816307    8.439874961389496    50.84923799939025   0.1024771391218014  -0.1247153275664523 -0.0004057917829121936 5.497094854130464e-05 0.0002424690425047719
      1362  2.994816948246439e-09   -452.8433013358182    9.745526092816307    8.439874961389496    50.84923799939025   0.1005819588793266  -0.1236980146744615 -0.0003234778262026936 5.481464412454085e-05 0.0002406067366884242
Loop time of 0.00227999 on 1 procs for 1 steps with 62 atoms

25.3% CPU use with 1 MPI tasks x no OpenMP threads

Minimization stats:
  Stopping criterion = force tolerance
  Energy initial, next-to-last, final = 
     -452.843301335772  -452.843301335772  -452.843301335818
  Force two-norm initial, final = 0.00024246904 0.00024060674
  Force max component initial, final = 5.4970949e-05 5.4814644e-05
  Final line search alpha, max atom move = 0 0
  Iterations, force evaluations = 1 2

MPI task timing breakdown:
Section |  min time  |  avg time  |  max time  |%varavg| %total
---------------------------------------------------------------
Pair    | 0.00081508 | 0.00081508 | 0.00081508 |   0.0 | 35.75
Neigh   | 0          | 0          | 0          |   0.0 |  0.00
Comm    | 6.879e-06  | 6.879e-06  | 6.879e-06  |   0.0 |  0.30
Output  | 0          | 0          | 0          |   0.0 |  0.00
Modify  | 0          | 0          | 0          |   0.0 |  0.00
Other   |            | 0.001458   |            |       | 63.95

Nlocal:             62 ave          62 max          62 min
Histogram: 1 0 0 0 0 0 0 0 0 0
Nghost:            546 ave         546 max         546 min
Histogram: 1 0 0 0 0 0 0 0 0 0
Neighs:              0 ave           0 max           0 min
Histogram: 1 0 0 0 0 0 0 0 0 0
FullNghs:         9974 ave        9974 max        9974 min
Histogram: 1 0 0 0 0 0 0 0 0 0

Total # of neighbors = 9974
Ave neighs/atom = 160.87097
Neighbor list builds = 0
Dangerous builds = 0

next nr
jump ${simname}.in loopmin
jump LCBOP.in loopmin

# Minimize the with cg + box/relax
  fix             frb all box/relax tri 0.0 couple none
  min_style       cg
  min_modify      line quadratic
  minimize        0.0 1.0e-3 10000 10000
WARNING: Energy due to 6 extra global DOFs will be included in minimizer energies
 (src/min.cpp:225)
Per MPI rank memory allocation (min/avg/max) = 5.162 | 5.162 | 5.162 Mbytes
   Step          Temp          PotEng           Lx             Ly             Lz            Pxx            Pyy            Pzz            Fmax          Fnorm     
      1362  2.994816948246439e-09   -452.8433013358182    9.745526092816307    8.439874961389496    50.84923799939025   0.1005819588252411  -0.1236980147225524 -0.0003234778207189886 5.481464417416999e-05 0.0002406067366765706
      1363  2.994816948246439e-09     -452.84330133589    9.745527248614032    8.439873730397553    50.84923797999453 -0.01847663272935506  0.03287262832287616 0.001086733555882583 5.405981332846964e-05 0.0002377892695753788
Loop time of 0.00107031 on 1 procs for 1 steps with 62 atoms

26.1% CPU use with 1 MPI tasks x no OpenMP threads

Minimization stats:
  Stopping criterion = force tolerance
  Energy initial, next-to-last, final = 
     -452.843301335818  -452.843301335818   -452.84330133589
  Force two-norm initial, final = 0.00054264711 0.00026469779
  Force max component initial, final = 0.0003229075 8.5812361e-05
  Final line search alpha, max atom move = 0.30968621 2.6574905e-05
  Iterations, force evaluations = 1 2

MPI task timing breakdown:
Section |  min time  |  avg time  |  max time  |%varavg| %total
---------------------------------------------------------------
Pair    | 0.00052547 | 0.00052547 | 0.00052547 |   0.0 | 49.10
Neigh   | 0          | 0          | 0          |   0.0 |  0.00
Comm    | 5.261e-06  | 5.261e-06  | 5.261e-06  |   0.0 |  0.49
Output  | 0          | 0          | 0          |   0.0 |  0.00
Modify  | 0          | 0          | 0          |   0.0 |  0.00
Other   |            | 0.0005396  |            |       | 50.41

Nlocal:             62 ave          62 max          62 min
Histogram: 1 0 0 0 0 0 0 0 0 0
Nghost:            546 ave         546 max         546 min
Histogram: 1 0 0 0 0 0 0 0 0 0
Neighs:              0 ave           0 max           0 min
Histogram: 1 0 0 0 0 0 0 0 0 0
FullNghs:         9974 ave        9974 max        9974 min
Histogram: 1 0 0 0 0 0 0 0 0 0

Total # of neighbors = 9974
Ave neighs/atom = 160.87097
Neighbor list builds = 0
Dangerous builds = 0

# Minimize the with fire
  unfix           frb
  min_style       fire
  minimize        0.0 1.0e-3 10000 10000
  Parameters for fire:
    dmax  delaystep dtgrow dtshrink alpha0 alphashrink tmax tmin   integrator   halfstepback   abcfire  
     0.1     20      1.1     0.5     0.25     0.99      10  0.02 eulerimplicit      yes          no     
Per MPI rank memory allocation (min/avg/max) = 4.037 | 4.037 | 4.037 Mbytes
   Step          Temp          PotEng           Lx             Ly             Lz            Pxx            Pyy            Pzz            Fmax          Fnorm     
      1363                     0   -452.8433013358899    9.745527248614032    8.439873730397553    50.84923797999453 -0.01847663393857259  0.03287262654089416 0.001086718339032922 5.405981334249488e-05 0.0002377892695722049
      1364  2.880329636079191e-09   -452.8433013359345    9.745527248614032    8.439873730397553    50.84923797999453 -0.01851534418409014  0.03197449638601797 0.001183782598967646 5.394921986187498e-05 0.0002365337843283064
Loop time of 0.000789966 on 1 procs for 1 steps with 62 atoms

31.0% CPU use with 1 MPI tasks x no OpenMP threads

Minimization stats:
  Stopping criterion = force tolerance
  Energy initial, next-to-last, final = 
      -452.84330133589   -452.84330133589  -452.843301335935
  Force two-norm initial, final = 0.00023778927 0.00023653378
  Force max component initial, final = 5.4059813e-05 5.394922e-05
  Final line search alpha, max atom move = 0 0
  Iterations, force evaluations = 1 2

MPI task timing breakdown:
Section |  min time  |  avg time  |  max time  |%varavg| %total
---------------------------------------------------------------
Pair    | 0.00048213 | 0.00048213 | 0.00048213 |   0.0 | 61.03
Neigh   | 0          | 0          | 0          |   0.0 |  0.00
Comm    | 4.449e-06  | 4.449e-06  | 4.449e-06  |   0.0 |  0.56
Output  | 0          | 0          | 0          |   0.0 |  0.00
Modify  | 0          | 0          | 0          |   0.0 |  0.00
Other   |            | 0.0003034  |            |       | 38.41

Nlocal:             62 ave          62 max          62 min
Histogram: 1 0 0 0 0 0 0 0 0 0
Nghost:            546 ave         546 max         546 min
Histogram: 1 0 0 0 0 0 0 0 0 0
Neighs:              0 ave           0 max           0 min
Histogram: 1 0 0 0 0 0 0 0 0 0
FullNghs:         9974 ave        9974 max        9974 min
Histogram: 1 0 0 0 0 0 0 0 0 0

Total # of neighbors = 9974
Ave neighs/atom = 160.87097
Neighbor list builds = 0
Dangerous builds = 0

next nr
jump ${simname}.in loopmin
jump LCBOP.in loopmin

# Minimize the with cg + box/relax
  fix             frb all box/relax tri 0.0 couple none
  min_style       cg
  min_modify      line quadratic
  minimize        0.0 1.0e-3 10000 10000
WARNING: Energy due to 6 extra global DOFs will be included in minimizer energies
 (src/min.cpp:225)
Per MPI rank memory allocation (min/avg/max) = 5.162 | 5.162 | 5.162 Mbytes
   Step          Temp          PotEng           Lx             Ly             Lz            Pxx            Pyy            Pzz            Fmax          Fnorm     
      1364  2.880329636079191e-09   -452.8433013359345    9.745527248614032    8.439873730397553    50.84923797999453  -0.0185153441357728  0.03197449630699841 0.001183782590167934 5.394921987020903e-05 0.0002365337843063445
      1365  2.880329636079191e-09   -452.8433013359974    9.745526347151294    8.439875078584976    50.84923828071393   0.0649119197228135  -0.1479440577684813 -0.002773149711623952 5.432433601696828e-05 0.0002359646503276651
Loop time of 0.000977993 on 1 procs for 1 steps with 62 atoms

26.9% CPU use with 1 MPI tasks x no OpenMP threads

Minimization stats:
  Stopping criterion = force tolerance
  Energy initial, next-to-last, final = 
     -452.843301335935  -452.843301335935  -452.843301335997
  Force two-norm initial, final = 0.00026251466 0.00053728529
  Force max component initial, final = 8.3467821e-05 0.00038620054
  Final line search alpha, max atom move = 1 0.00038620054
  Iterations, force evaluations = 1 2

MPI task timing breakdown:
Section |  min time  |  avg time  |  max time  |%varavg| %total
---------------------------------------------------------------
Pair    | 0.00051973 | 0.00051973 | 0.00051973 |   0.0 | 53.14
Neigh   | 0          | 0          | 0          |   0.0 |  0.00
Comm    | 4.616e-06  | 4.616e-06  | 4.616e-06  |   0.0 |  0.47
Output  | 0          | 0          | 0          |   0.0 |  0.00
Modify  | 0          | 0          | 0          |   0.0 |  0.00
Other   |            | 0.0004536  |            |       | 46.39

Nlocal:             62 ave          62 max          62 min
Histogram: 1 0 0 0 0 0 0 0 0 0
Nghost:            546 ave         546 max         546 min
Histogram: 1 0 0 0 0 0 0 0 0 0
Neighs:              0 ave           0 max           0 min
Histogram: 1 0 0 0 0 0 0 0 0 0
FullNghs:         9974 ave        9974 max        9974 min
Histogram: 1 0 0 0 0 0 0 0 0 0

Total # of neighbors = 9974
Ave neighs/atom = 160.87097
Neighbor list builds = 0
Dangerous builds = 0

# Minimize the with fire
  unfix           frb
  min_style       fire
  minimize        0.0 1.0e-3 10000 10000
  Parameters for fire:
    dmax  delaystep dtgrow dtshrink alpha0 alphashrink tmax tmin   integrator   halfstepback   abcfire  
     0.1     20      1.1     0.5     0.25     0.99      10  0.02 eulerimplicit      yes          no     
Per MPI rank memory allocation (min/avg/max) = 4.037 | 4.037 | 4.037 Mbytes
   Step          Temp          PotEng           Lx             Ly             Lz            Pxx            Pyy            Pzz            Fmax          Fnorm     
      1365                     0   -452.8433013359974    9.745526347151294    8.439875078584976    50.84923828071393    0.064911918605708  -0.1479440589715794 -0.002773165051037042 5.432433606517928e-05 0.000235964650331433
      1366  2.836296181516407e-09   -452.8433013360419    9.745526347151294    8.439875078584976    50.84923828071393  0.06317208830917824  -0.1470542177068946 -0.002718543835708667 5.419520243901948e-05 0.0002347584042962009
Loop time of 0.000896916 on 1 procs for 1 steps with 62 atoms

29.1% CPU use with 1 MPI tasks x no OpenMP threads

Minimization stats:
  Stopping criterion = force tolerance
  Energy initial, next-to-last, final = 
     -452.843301335997  -452.843301335997  -452.843301336042
  Force two-norm initial, final = 0.00023596465 0.0002347584
  Force max component initial, final = 5.4324336e-05 5.4195202e-05
  Final line search alpha, max atom move = 0 0
  Iterations, force evaluations = 1 2

MPI task timing breakdown:
Section |  min time  |  avg time  |  max time  |%varavg| %total
---------------------------------------------------------------
Pair    | 0.00052806 | 0.00052806 | 0.00052806 |   0.0 | 58.87
Neigh   | 0          | 0          | 0          |   0.0 |  0.00
Comm    | 4.831e-06  | 4.831e-06  | 4.831e-06  |   0.0 |  0.54
Output  | 0          | 0          | 0          |   0.0 |  0.00
Modify  | 0          | 0          | 0          |   0.0 |  0.00
Other   |            | 0.000364   |            |       | 40.59

Nlocal:             62 ave          62 max          62 min
Histogram: 1 0 0 0 0 0 0 0 0 0
Nghost:            546 ave         546 max         546 min
Histogram: 1 0 0 0 0 0 0 0 0 0
Neighs:              0 ave           0 max           0 min
Histogram: 1 0 0 0 0 0 0 0 0 0
FullNghs:         9974 ave        9974 max        9974 min
Histogram: 1 0 0 0 0 0 0 0 0 0

Total # of neighbors = 9974
Ave neighs/atom = 160.87097
Neighbor list builds = 0
Dangerous builds = 0

next nr
jump ${simname}.in loopmin
jump LCBOP.in loopmin

# Minimize the with cg + box/relax
  fix             frb all box/relax tri 0.0 couple none
  min_style       cg
  min_modify      line quadratic
  minimize        0.0 1.0e-3 10000 10000
WARNING: Energy due to 6 extra global DOFs will be included in minimizer energies
 (src/min.cpp:225)
Per MPI rank memory allocation (min/avg/max) = 5.162 | 5.162 | 5.162 Mbytes
   Step          Temp          PotEng           Lx             Ly             Lz            Pxx            Pyy            Pzz            Fmax          Fnorm     
      1366  2.836296181516407e-09   -452.8433013360418    9.745526347151294    8.439875078584976    50.84923828071393  0.06317208853269037  -0.1470542178043841 -0.002718543852320598 5.419520245790238e-05 0.0002347584043379302
      1367  2.836296181516407e-09    -452.843301336109    9.745527067519046    8.439873626348835    50.84923811896294 0.003290769045770795  0.04939599238140901 0.002524123247718842 5.363439396043924e-05 0.0002329929822472622
Loop time of 0.000855251 on 1 procs for 1 steps with 62 atoms

78.5% CPU use with 1 MPI tasks x no OpenMP threads

Minimization stats:
  Stopping criterion = force tolerance
  Energy initial, next-to-last, final = 
     -452.843301336042  -452.843301336042  -452.843301336109
  Force two-norm initial, final = 0.00053251386 0.00026755783
  Force max component initial, final = 0.00038387772 0.00012894578
  Final line search alpha, max atom move = 0.26049962 3.3590328e-05
  Iterations, force evaluations = 1 2

MPI task timing breakdown:
Section |  min time  |  avg time  |  max time  |%varavg| %total
---------------------------------------------------------------
Pair    | 0.00056603 | 0.00056603 | 0.00056603 |   0.0 | 66.18
Neigh   | 0          | 0          | 0          |   0.0 |  0.00
Comm    | 7.037e-06  | 7.037e-06  | 7.037e-06  |   0.0 |  0.82
Output  | 0          | 0          | 0          |   0.0 |  0.00
Modify  | 0          | 0          | 0          |   0.0 |  0.00
Other   |            | 0.0002822  |            |       | 32.99

Nlocal:             62 ave          62 max          62 min
Histogram: 1 0 0 0 0 0 0 0 0 0
Nghost:            546 ave         546 max         546 min
Histogram: 1 0 0 0 0 0 0 0 0 0
Neighs:              0 ave           0 max           0 min
Histogram: 1 0 0 0 0 0 0 0 0 0
FullNghs:         9974 ave        9974 max        9974 min
Histogram: 1 0 0 0 0 0 0 0 0 0

Total # of neighbors = 9974
Ave neighs/atom = 160.87097
Neighbor list builds = 0
Dangerous builds = 0

# Minimize the with fire
  unfix           frb
  min_style       fire
  minimize        0.0 1.0e-3 10000 10000
  Parameters for fire:
    dmax  delaystep dtgrow dtshrink alpha0 alphashrink tmax tmin   integrator   halfstepback   abcfire  
     0.1     20      1.1     0.5     0.25     0.99      10  0.02 eulerimplicit      yes          no     
Per MPI rank memory allocation (min/avg/max) = 4.037 | 4.037 | 4.037 Mbytes
   Step          Temp          PotEng           Lx             Ly             Lz            Pxx            Pyy            Pzz            Fmax          Fnorm     
      1367                     0    -452.843301336109    9.745527067519046    8.439873626348835    50.84923811896294 0.003290768264506288  0.04939599139801022 0.002524108134489748 5.363439394321778e-05 0.0002329929822617604
      1368  2.765307094004622e-09   -452.8433013361534    9.745527067519046    8.439873626348835    50.84923811896294  0.00321099674549152  0.04844820828930928 0.002641265661785784 5.354077054240368e-05 0.0002322393741484097
Loop time of 0.00084524 on 1 procs for 1 steps with 62 atoms

66.3% CPU use with 1 MPI tasks x no OpenMP threads

Minimization stats:
  Stopping criterion = force tolerance
  Energy initial, next-to-last, final = 
     -452.843301336109  -452.843301336109  -452.843301336153
  Force two-norm initial, final = 0.00023299298 0.00023223937
  Force max component initial, final = 5.3634394e-05 5.3540771e-05
  Final line search alpha, max atom move = 0 0
  Iterations, force evaluations = 1 2

MPI task timing breakdown:
Section |  min time  |  avg time  |  max time  |%varavg| %total
---------------------------------------------------------------
Pair    | 0.00049092 | 0.00049092 | 0.00049092 |   0.0 | 58.08
Neigh   | 0          | 0          | 0          |   0.0 |  0.00
Comm    | 3.667e-06  | 3.667e-06  | 3.667e-06  |   0.0 |  0.43
Output  | 0          | 0          | 0          |   0.0 |  0.00
Modify  | 0          | 0          | 0          |   0.0 |  0.00
Other   |            | 0.0003507  |            |       | 41.49

Nlocal:             62 ave          62 max          62 min
Histogram: 1 0 0 0 0 0 0 0 0 0
Nghost:            546 ave         546 max         546 min
Histogram: 1 0 0 0 0 0 0 0 0 0
Neighs:              0 ave           0 max           0 min
Histogram: 1 0 0 0 0 0 0 0 0 0
FullNghs:         9974 ave        9974 max        9974 min
Histogram: 1 0 0 0 0 0 0 0 0 0

Total # of neighbors = 9974
Ave neighs/atom = 160.87097
Neighbor list builds = 0
Dangerous builds = 0

next nr
jump ${simname}.in loopmin
jump LCBOP.in loopmin

# Minimize the with cg + box/relax
  fix             frb all box/relax tri 0.0 couple none
  min_style       cg
  min_modify      line quadratic
  minimize        0.0 1.0e-3 10000 10000
WARNING: Energy due to 6 extra global DOFs will be included in minimizer energies
 (src/min.cpp:225)
Per MPI rank memory allocation (min/avg/max) = 5.162 | 5.162 | 5.162 Mbytes
   Step          Temp          PotEng           Lx             Ly             Lz            Pxx            Pyy            Pzz            Fmax          Fnorm     
      1368  2.765307094004622e-09   -452.8433013361533    9.745527067519046    8.439873626348835    50.84923811896294 0.003210996607349262  0.04844820836297074 0.002641265637818828 5.354077050952113e-05 0.0002322393741792082
      1369  2.765307094004622e-09   -452.8433013361985    9.745527174423099    8.439875023240614    50.84923857778378  -0.0402504786540033  -0.1565052255275916 -0.007084454811286357 5.345535324240321e-05 0.0002303199522050013
Loop time of 0.000874274 on 1 procs for 1 steps with 62 atoms

74.6% CPU use with 1 MPI tasks x no OpenMP threads

Minimization stats:
  Stopping criterion = force tolerance
  Energy initial, next-to-last, final = 
     -452.843301336153  -452.843301336153  -452.843301336199
  Force two-norm initial, final = 0.00026564198 0.00048149848
  Force max component initial, final = 0.00012647162 0.00040854907
  Final line search alpha, max atom move = 0.79069122 0.00032303616
  Iterations, force evaluations = 1 2

MPI task timing breakdown:
Section |  min time  |  avg time  |  max time  |%varavg| %total
---------------------------------------------------------------
Pair    | 0.00052478 | 0.00052478 | 0.00052478 |   0.0 | 60.02
Neigh   | 0          | 0          | 0          |   0.0 |  0.00
Comm    | 5.194e-06  | 5.194e-06  | 5.194e-06  |   0.0 |  0.59
Output  | 0          | 0          | 0          |   0.0 |  0.00
Modify  | 0          | 0          | 0          |   0.0 |  0.00
Other   |            | 0.0003443  |            |       | 39.38

Nlocal:             62 ave          62 max          62 min
Histogram: 1 0 0 0 0 0 0 0 0 0
Nghost:            546 ave         546 max         546 min
Histogram: 1 0 0 0 0 0 0 0 0 0
Neighs:              0 ave           0 max           0 min
Histogram: 1 0 0 0 0 0 0 0 0 0
FullNghs:         9974 ave        9974 max        9974 min
Histogram: 1 0 0 0 0 0 0 0 0 0

Total # of neighbors = 9974
Ave neighs/atom = 160.87097
Neighbor list builds = 0
Dangerous builds = 0

# Minimize the with fire
  unfix           frb
  min_style       fire
  minimize        0.0 1.0e-3 10000 10000
  Parameters for fire:
    dmax  delaystep dtgrow dtshrink alpha0 alphashrink tmax tmin   integrator   halfstepback   abcfire  
     0.1     20      1.1     0.5     0.25     0.99      10  0.02 eulerimplicit      yes          no     
Per MPI rank memory allocation (min/avg/max) = 4.037 | 4.037 | 4.037 Mbytes
   Step          Temp          PotEng           Lx             Ly             Lz            Pxx            Pyy            Pzz            Fmax          Fnorm     
      1369                     0   -452.8433013361986    9.745527174423099    8.439875023240614    50.84923857778378 -0.04025047960258796  -0.1565052261677999 -0.007084470052807195 5.345535324049631e-05 0.0002303199521957612
      1370  2.702220663872866e-09   -452.8433013362424    9.745527174423099    8.439875023240614    50.84923857778378 -0.04127697893619687  -0.1562227833203222 -0.007078489768148006 5.335644347550942e-05 0.0002296711423996302
Loop time of 0.00107131 on 1 procs for 1 steps with 62 atoms

76.4% CPU use with 1 MPI tasks x no OpenMP threads

Minimization stats:
  Stopping criterion = force tolerance
  Energy initial, next-to-last, final = 
     -452.843301336199  -452.843301336199  -452.843301336242
  Force two-norm initial, final = 0.00023031995 0.00022967114
  Force max component initial, final = 5.3455353e-05 5.3356443e-05
  Final line search alpha, max atom move = 0 0
  Iterations, force evaluations = 1 2

MPI task timing breakdown:
Section |  min time  |  avg time  |  max time  |%varavg| %total
---------------------------------------------------------------
Pair    | 0.00071474 | 0.00071474 | 0.00071474 |   0.0 | 66.72
Neigh   | 0          | 0          | 0          |   0.0 |  0.00
Comm    | 6.322e-06  | 6.322e-06  | 6.322e-06  |   0.0 |  0.59
Output  | 0          | 0          | 0          |   0.0 |  0.00
Modify  | 0          | 0          | 0          |   0.0 |  0.00
Other   |            | 0.0003502  |            |       | 32.69

Nlocal:             62 ave          62 max          62 min
Histogram: 1 0 0 0 0 0 0 0 0 0
Nghost:            546 ave         546 max         546 min
Histogram: 1 0 0 0 0 0 0 0 0 0
Neighs:              0 ave           0 max           0 min
Histogram: 1 0 0 0 0 0 0 0 0 0
FullNghs:         9974 ave        9974 max        9974 min
Histogram: 1 0 0 0 0 0 0 0 0 0

Total # of neighbors = 9974
Ave neighs/atom = 160.87097
Neighbor list builds = 0
Dangerous builds = 0

next nr
jump ${simname}.in loopmin
jump LCBOP.in loopmin

# Minimize the with cg + box/relax
  fix             frb all box/relax tri 0.0 couple none
  min_style       cg
  min_modify      line quadratic
  minimize        0.0 1.0e-3 10000 10000
WARNING: Energy due to 6 extra global DOFs will be included in minimizer energies
 (src/min.cpp:225)
Per MPI rank memory allocation (min/avg/max) = 5.162 | 5.162 | 5.162 Mbytes
   Step          Temp          PotEng           Lx             Ly             Lz            Pxx            Pyy            Pzz            Fmax          Fnorm     
      1370  2.702220663872866e-09   -452.8433013362424    9.745527174423099    8.439875023240614    50.84923857778378 -0.04127697904507784  -0.1562227833384837 -0.007078489753727033 5.33564434985717e-05 0.0002296711423979927
      1371  2.702220663872866e-09   -452.8433013362846    9.745526773765478    8.439873710011359    50.84923821928628  0.03628683172752974  0.04058598127375448 0.003482184550001488 5.336682874775532e-05 0.0002303238344903454
Loop time of 0.00104993 on 1 procs for 1 steps with 62 atoms

55.9% CPU use with 1 MPI tasks x no OpenMP threads

Minimization stats:
  Stopping criterion = force tolerance
  Energy initial, next-to-last, final = 
     -452.843301336242  -452.843301336242  -452.843301336285
  Force two-norm initial, final = 0.00048116094 0.00027436747
  Force max component initial, final = 0.00040781183 0.00010594768
  Final line search alpha, max atom move = 0.24521113 2.5979551e-05
  Iterations, force evaluations = 1 2

MPI task timing breakdown:
Section |  min time  |  avg time  |  max time  |%varavg| %total
---------------------------------------------------------------
Pair    | 0.00049266 | 0.00049266 | 0.00049266 |   0.0 | 46.92
Neigh   | 0          | 0          | 0          |   0.0 |  0.00
Comm    | 3.597e-06  | 3.597e-06  | 3.597e-06  |   0.0 |  0.34
Output  | 0          | 0          | 0          |   0.0 |  0.00
Modify  | 0          | 0          | 0          |   0.0 |  0.00
Other   |            | 0.0005537  |            |       | 52.73

Nlocal:             62 ave          62 max          62 min
Histogram: 1 0 0 0 0 0 0 0 0 0
Nghost:            546 ave         546 max         546 min
Histogram: 1 0 0 0 0 0 0 0 0 0
Neighs:              0 ave           0 max           0 min
Histogram: 1 0 0 0 0 0 0 0 0 0
FullNghs:         9974 ave        9974 max        9974 min
Histogram: 1 0 0 0 0 0 0 0 0 0

Total # of neighbors = 9974
Ave neighs/atom = 160.87097
Neighbor list builds = 0
Dangerous builds = 0

# Minimize the with fire
  unfix           frb
  min_style       fire
  minimize        0.0 1.0e-3 10000 10000
  Parameters for fire:
    dmax  delaystep dtgrow dtshrink alpha0 alphashrink tmax tmin   integrator   halfstepback   abcfire  
     0.1     20      1.1     0.5     0.25     0.99      10  0.02 eulerimplicit      yes          no     
Per MPI rank memory allocation (min/avg/max) = 4.037 | 4.037 | 4.037 Mbytes
[...]
Histogram: 1 0 0 0 0 0 0 0 0 0
FullNghs:         9974 ave        9974 max        9974 min
Histogram: 1 0 0 0 0 0 0 0 0 0

Total # of neighbors = 9974
Ave neighs/atom = 160.87097
Neighbor list builds = 0
Dangerous builds = 0

# Minimize the with fire
  unfix           frb
  min_style       fire
  minimize        0.0 1.0e-3 10000 10000
  Parameters for fire:
    dmax  delaystep dtgrow dtshrink alpha0 alphashrink tmax tmin   integrator   halfstepback   abcfire  
     0.1     20      1.1     0.5     0.25     0.99      10  0.02 eulerimplicit      yes          no     
Per MPI rank memory allocation (min/avg/max) = 4.037 | 4.037 | 4.037 Mbytes
   Step          Temp          PotEng           Lx             Ly             Lz            Pxx            Pyy            Pzz            Fmax          Fnorm     
      1546                     0   -452.8433013662099    9.745520142053875    8.439868017433614    50.84931888225316  0.03611154165166384  0.03610557490650148 0.002800989817606435 2.553957703071985e-05 6.265703722910345e-05
      1547  1.999849885869659e-10   -452.8433013662117    9.745520142053875    8.439868017433614    50.84931888225316   0.0360855101110413  0.03608214968096482 0.002889703305154747 2.546308997861124e-05 6.206886246851036e-05
Loop time of 0.000762837 on 1 procs for 1 steps with 62 atoms

76.7% CPU use with 1 MPI tasks x no OpenMP threads

Minimization stats:
  Stopping criterion = force tolerance
  Energy initial, next-to-last, final = 
      -452.84330136621   -452.84330136621  -452.843301366212
  Force two-norm initial, final = 6.2657037e-05 6.2068862e-05
  Force max component initial, final = 2.5539577e-05 2.546309e-05
  Final line search alpha, max atom move = 0 0
  Iterations, force evaluations = 1 2

MPI task timing breakdown:
Section |  min time  |  avg time  |  max time  |%varavg| %total
---------------------------------------------------------------
Pair    | 0.00050635 | 0.00050635 | 0.00050635 |   0.0 | 66.38
Neigh   | 0          | 0          | 0          |   0.0 |  0.00
Comm    | 3.969e-06  | 3.969e-06  | 3.969e-06  |   0.0 |  0.52
Output  | 0          | 0          | 0          |   0.0 |  0.00
Modify  | 0          | 0          | 0          |   0.0 |  0.00
Other   |            | 0.0002525  |            |       | 33.10

Nlocal:             62 ave          62 max          62 min
Histogram: 1 0 0 0 0 0 0 0 0 0
Nghost:            546 ave         546 max         546 min
Histogram: 1 0 0 0 0 0 0 0 0 0
Neighs:              0 ave           0 max           0 min
Histogram: 1 0 0 0 0 0 0 0 0 0
FullNghs:         9974 ave        9974 max        9974 min
Histogram: 1 0 0 0 0 0 0 0 0 0

Total # of neighbors = 9974
Ave neighs/atom = 160.87097
Neighbor list builds = 0
Dangerous builds = 0

next nr
jump ${simname}.in loopmin
jump LCBOP.in loopmin

# Minimize the with cg + box/relax
  fix             frb all box/relax tri 0.0 couple none
  min_style       cg
  min_modify      line quadratic
  minimize        0.0 1.0e-3 10000 10000
WARNING: Energy due to 6 extra global DOFs will be included in minimizer energies
 (src/min.cpp:225)
Per MPI rank memory allocation (min/avg/max) = 5.162 | 5.162 | 5.162 Mbytes
   Step          Temp          PotEng           Lx             Ly             Lz            Pxx            Pyy            Pzz            Fmax          Fnorm     
      1547  1.999849885869659e-10   -452.8433013662114    9.745520142053875    8.439868017433614    50.84931888225316   0.0360855102879695  0.03608214993783951 0.002889703258316657 2.546308996284607e-05 6.206886242222001e-05
      1548  1.999849885869659e-10   -452.8433013662186    9.745520443665171    8.439868278612336    50.84931900827562 -0.00716275265893207 -0.00716209300427347 -0.0004351314451193506 2.51164921209468e-05 6.313644979598278e-05
Loop time of 0.000968993 on 1 procs for 1 steps with 62 atoms

59.2% CPU use with 1 MPI tasks x no OpenMP threads

Minimization stats:
  Stopping criterion = force tolerance
  Energy initial, next-to-last, final = 
     -452.843301366211  -452.843301366211  -452.843301366219
  Force two-norm initial, final = 0.000154185 6.8974125e-05
  Force max component initial, final = 9.4199438e-05 2.5116492e-05
  Final line search alpha, max atom move = 1 2.5116492e-05
  Iterations, force evaluations = 1 2

MPI task timing breakdown:
Section |  min time  |  avg time  |  max time  |%varavg| %total
---------------------------------------------------------------
Pair    | 0.00049054 | 0.00049054 | 0.00049054 |   0.0 | 50.62
Neigh   | 0          | 0          | 0          |   0.0 |  0.00
Comm    | 3.903e-06  | 3.903e-06  | 3.903e-06  |   0.0 |  0.40
Output  | 0          | 0          | 0          |   0.0 |  0.00
Modify  | 0          | 0          | 0          |   0.0 |  0.00
Other   |            | 0.0004746  |            |       | 48.97

Nlocal:             62 ave          62 max          62 min
Histogram: 1 0 0 0 0 0 0 0 0 0
Nghost:            546 ave         546 max         546 min
Histogram: 1 0 0 0 0 0 0 0 0 0
Neighs:              0 ave           0 max           0 min
Histogram: 1 0 0 0 0 0 0 0 0 0
FullNghs:         9974 ave        9974 max        9974 min
Histogram: 1 0 0 0 0 0 0 0 0 0

Total # of neighbors = 9974
Ave neighs/atom = 160.87097
Neighbor list builds = 0
Dangerous builds = 0

# Minimize the with fire
  unfix           frb
  min_style       fire
  minimize        0.0 1.0e-3 10000 10000
  Parameters for fire:
    dmax  delaystep dtgrow dtshrink alpha0 alphashrink tmax tmin   integrator   halfstepback   abcfire  
     0.1     20      1.1     0.5     0.25     0.99      10  0.02 eulerimplicit      yes          no     
Per MPI rank memory allocation (min/avg/max) = 4.037 | 4.037 | 4.037 Mbytes
   Step          Temp          PotEng           Lx             Ly             Lz            Pxx            Pyy            Pzz            Fmax          Fnorm     
      1548                     0   -452.8433013662186    9.745520443665171    8.439868278612336    50.84931900827562 -0.007162752926164354 -0.007162093052184535 -0.000435132482725468 2.511649212366684e-05 6.313644985393728e-05
      1549  2.03057017439887e-10   -452.8433013662213    9.745520443665171    8.439868278612336    50.84931900827562 -0.007143874962954972 -0.007140747474376832 -0.0003742718245040302 2.504035454584108e-05 6.239586428382351e-05
Loop time of 0.00091015 on 1 procs for 1 steps with 62 atoms

35.4% CPU use with 1 MPI tasks x no OpenMP threads

Minimization stats:
  Stopping criterion = force tolerance
  Energy initial, next-to-last, final = 
     -452.843301366219  -452.843301366219  -452.843301366221
  Force two-norm initial, final = 6.313645e-05 6.2395864e-05
  Force max component initial, final = 2.5116492e-05 2.5040355e-05
  Final line search alpha, max atom move = 0 0
  Iterations, force evaluations = 1 2

MPI task timing breakdown:
Section |  min time  |  avg time  |  max time  |%varavg| %total
---------------------------------------------------------------
Pair    | 0.00056087 | 0.00056087 | 0.00056087 |   0.0 | 61.62
Neigh   | 0          | 0          | 0          |   0.0 |  0.00
Comm    | 4.046e-06  | 4.046e-06  | 4.046e-06  |   0.0 |  0.44
Output  | 0          | 0          | 0          |   0.0 |  0.00
Modify  | 0          | 0          | 0          |   0.0 |  0.00
Other   |            | 0.0003452  |            |       | 37.93

Nlocal:             62 ave          62 max          62 min
Histogram: 1 0 0 0 0 0 0 0 0 0
Nghost:            546 ave         546 max         546 min
Histogram: 1 0 0 0 0 0 0 0 0 0
Neighs:              0 ave           0 max           0 min
Histogram: 1 0 0 0 0 0 0 0 0 0
FullNghs:         9974 ave        9974 max        9974 min
Histogram: 1 0 0 0 0 0 0 0 0 0

Total # of neighbors = 9974
Ave neighs/atom = 160.87097
Neighbor list builds = 0
Dangerous builds = 0

next nr
jump ${simname}.in loopmin
jump LCBOP.in loopmin

# Minimize the with cg + box/relax
  fix             frb all box/relax tri 0.0 couple none
  min_style       cg
  min_modify      line quadratic
  minimize        0.0 1.0e-3 10000 10000
WARNING: Energy due to 6 extra global DOFs will be included in minimizer energies
 (src/min.cpp:225)
Per MPI rank memory allocation (min/avg/max) = 5.162 | 5.162 | 5.162 Mbytes
   Step          Temp          PotEng           Lx             Ly             Lz            Pxx            Pyy            Pzz            Fmax          Fnorm     
      1549  2.03057017439887e-10   -452.8433013662216    9.745520443665171    8.439868278612336    50.84931900827562 -0.007143875146343729 -0.007140747806017972 -0.0003742718311360423 2.50403545409561e-05 6.239586426228823e-05
      1550  2.03057017439887e-10   -452.8433013662234    9.745520145550074    8.439868020550112    50.84931892678295  0.03557460431868813  0.03556876062940399 0.002954283128236436 2.519680812651526e-05 6.026907772471816e-05
Loop time of 0.000741416 on 1 procs for 1 steps with 62 atoms

0.0% CPU use with 1 MPI tasks x no OpenMP threads

Minimization stats:
  Stopping criterion = force tolerance
  Energy initial, next-to-last, final = 
     -452.843301366222  -452.843301366222  -452.843301366223
  Force two-norm initial, final = 6.8004792e-05 0.00015120449
  Force max component initial, final = 2.5040355e-05 9.2865746e-05
  Final line search alpha, max atom move = 1 9.2865746e-05
  Iterations, force evaluations = 1 2

MPI task timing breakdown:
Section |  min time  |  avg time  |  max time  |%varavg| %total
---------------------------------------------------------------
Pair    | 0.00047792 | 0.00047792 | 0.00047792 |   0.0 | 64.46
Neigh   | 0          | 0          | 0          |   0.0 |  0.00
Comm    | 3.96e-06   | 3.96e-06   | 3.96e-06   |   0.0 |  0.53
Output  | 0          | 0          | 0          |   0.0 |  0.00
Modify  | 0          | 0          | 0          |   0.0 |  0.00
Other   |            | 0.0002595  |            |       | 35.01

Nlocal:             62 ave          62 max          62 min
Histogram: 1 0 0 0 0 0 0 0 0 0
Nghost:            546 ave         546 max         546 min
Histogram: 1 0 0 0 0 0 0 0 0 0
Neighs:              0 ave           0 max           0 min
Histogram: 1 0 0 0 0 0 0 0 0 0
FullNghs:         9974 ave        9974 max        9974 min
Histogram: 1 0 0 0 0 0 0 0 0 0

Total # of neighbors = 9974
Ave neighs/atom = 160.87097
Neighbor list builds = 0
Dangerous builds = 0

# Minimize the with fire
  unfix           frb
  min_style       fire
  minimize        0.0 1.0e-3 10000 10000
  Parameters for fire:
    dmax  delaystep dtgrow dtshrink alpha0 alphashrink tmax tmin   integrator   halfstepback   abcfire  
     0.1     20      1.1     0.5     0.25     0.99      10  0.02 eulerimplicit      yes          no     
Per MPI rank memory allocation (min/avg/max) = 4.037 | 4.037 | 4.037 Mbytes
   Step          Temp          PotEng           Lx             Ly             Lz            Pxx            Pyy            Pzz            Fmax          Fnorm     
      1550                     0   -452.8433013662236    9.745520145550074    8.439868020550112    50.84931892678295  0.03557460416439698  0.03556876080952757  0.00295428211600472 2.519680812962388e-05 6.026907769165295e-05
      1551  1.850319722758177e-10   -452.8433013662267    9.745520145550074    8.439868020550112    50.84931892678295  0.03552427971890622  0.03552088927554387 0.003080770797278762 2.512084147657245e-05 5.985163021879426e-05
Loop time of 0.000788035 on 1 procs for 1 steps with 62 atoms

0.0% CPU use with 1 MPI tasks x no OpenMP threads

Minimization stats:
  Stopping criterion = force tolerance
  Energy initial, next-to-last, final = 
     -452.843301366224  -452.843301366224  -452.843301366227
  Force two-norm initial, final = 6.0269078e-05 5.985163e-05
  Force max component initial, final = 2.5196808e-05 2.5120841e-05
  Final line search alpha, max atom move = 0 0
  Iterations, force evaluations = 1 2

MPI task timing breakdown:
Section |  min time  |  avg time  |  max time  |%varavg| %total
---------------------------------------------------------------
Pair    | 0.00050584 | 0.00050584 | 0.00050584 |   0.0 | 64.19
Neigh   | 0          | 0          | 0          |   0.0 |  0.00
Comm    | 3.88e-06   | 3.88e-06   | 3.88e-06   |   0.0 |  0.49
Output  | 0          | 0          | 0          |   0.0 |  0.00
Modify  | 0          | 0          | 0          |   0.0 |  0.00
Other   |            | 0.0002783  |            |       | 35.32

Nlocal:             62 ave          62 max          62 min
Histogram: 1 0 0 0 0 0 0 0 0 0
Nghost:            546 ave         546 max         546 min
Histogram: 1 0 0 0 0 0 0 0 0 0
Neighs:              0 ave           0 max           0 min
Histogram: 1 0 0 0 0 0 0 0 0 0
FullNghs:         9974 ave        9974 max        9974 min
Histogram: 1 0 0 0 0 0 0 0 0 0

Total # of neighbors = 9974
Ave neighs/atom = 160.87097
Neighbor list builds = 0
Dangerous builds = 0

next nr
jump ${simname}.in loopmin
jump LCBOP.in loopmin

# Minimize the with cg + box/relax
  fix             frb all box/relax tri 0.0 couple none
  min_style       cg
  min_modify      line quadratic
  minimize        0.0 1.0e-3 10000 10000
Per MPI rank memory allocation (min/avg/max) = 5.162 | 5.162 | 5.162 Mbytes
   Step          Temp          PotEng           Lx             Ly             Lz            Pxx            Pyy            Pzz            Fmax          Fnorm     
WARNING: Too many warnings: 101 vs 100. All future warnings will be suppressed (src/thermo.cpp:472)
      1551  1.850319722758177e-10    -452.843301366227    9.745520145550074    8.439868020550112    50.84931892678295   0.0355242794667781  0.03552088959591709 0.003080770779785002 2.512084148248439e-05 5.985163017961459e-05
      1552  1.850319722758177e-10   -452.8433013662314    9.745520440031427     8.43986827555411    50.84931906003438 -0.006720754487073627 -0.006720190608435373 -0.0001832120859940862 2.478218137466626e-05 6.057256180916146e-05
Loop time of 0.000841517 on 1 procs for 1 steps with 62 atoms

0.0% CPU use with 1 MPI tasks x no OpenMP threads

Minimization stats:
  Stopping criterion = force tolerance
  Energy initial, next-to-last, final = 
     -452.843301366227  -452.843301366227  -452.843301366231
  Force two-norm initial, final = 0.00015129948 6.5957111e-05
  Force max component initial, final = 9.2734373e-05 2.4782181e-05
  Final line search alpha, max atom move = 1 2.4782181e-05
  Iterations, force evaluations = 1 2

MPI task timing breakdown:
Section |  min time  |  avg time  |  max time  |%varavg| %total
---------------------------------------------------------------
Pair    | 0.00055037 | 0.00055037 | 0.00055037 |   0.0 | 65.40
Neigh   | 0          | 0          | 0          |   0.0 |  0.00
Comm    | 3.957e-06  | 3.957e-06  | 3.957e-06  |   0.0 |  0.47
Output  | 0          | 0          | 0          |   0.0 |  0.00
Modify  | 0          | 0          | 0          |   0.0 |  0.00
Other   |            | 0.0002872  |            |       | 34.13

Nlocal:             62 ave          62 max          62 min
Histogram: 1 0 0 0 0 0 0 0 0 0
Nghost:            546 ave         546 max         546 min
Histogram: 1 0 0 0 0 0 0 0 0 0
Neighs:              0 ave           0 max           0 min
Histogram: 1 0 0 0 0 0 0 0 0 0
FullNghs:         9974 ave        9974 max        9974 min
Histogram: 1 0 0 0 0 0 0 0 0 0

Total # of neighbors = 9974
Ave neighs/atom = 160.87097
Neighbor list builds = 0
Dangerous builds = 0

# Minimize the with fire
  unfix           frb
  min_style       fire
  minimize        0.0 1.0e-3 10000 10000
  Parameters for fire:
    dmax  delaystep dtgrow dtshrink alpha0 alphashrink tmax tmin   integrator   halfstepback   abcfire  
     0.1     20      1.1     0.5     0.25     0.99      10  0.02 eulerimplicit      yes          no     
Per MPI rank memory allocation (min/avg/max) = 4.037 | 4.037 | 4.037 Mbytes
   Step          Temp          PotEng           Lx             Ly             Lz            Pxx            Pyy            Pzz            Fmax          Fnorm     
      1552                     0   -452.8433013662315    9.745520440031427     8.43986827555411    50.84931906003438 -0.006720754704114434 -0.006720190641587179 -0.0001832130913915201 2.478218140147814e-05 6.057256178862043e-05
      1553  1.869001156999429e-10   -452.8433013662336    9.745520440031427     8.43986827555411    50.84931906003438 -0.006725828059085033 -0.006722941274209706 -8.61495768686226e-05 2.470658118572389e-05 6.002603991988437e-05
Loop time of 0.000751283 on 1 procs for 1 steps with 62 atoms

72.3% CPU use with 1 MPI tasks x no OpenMP threads

Minimization stats:
  Stopping criterion = force tolerance
  Energy initial, next-to-last, final = 
     -452.843301366232  -452.843301366232  -452.843301366234
  Force two-norm initial, final = 6.0572562e-05 6.002604e-05
  Force max component initial, final = 2.4782181e-05 2.4706581e-05
  Final line search alpha, max atom move = 0 0
  Iterations, force evaluations = 1 2

MPI task timing breakdown:
Section |  min time  |  avg time  |  max time  |%varavg| %total
---------------------------------------------------------------
Pair    | 0.00047718 | 0.00047718 | 0.00047718 |   0.0 | 63.51
Neigh   | 0          | 0          | 0          |   0.0 |  0.00
Comm    | 4.211e-06  | 4.211e-06  | 4.211e-06  |   0.0 |  0.56
Output  | 0          | 0          | 0          |   0.0 |  0.00
Modify  | 0          | 0          | 0          |   0.0 |  0.00
Other   |            | 0.0002699  |            |       | 35.92

Nlocal:             62 ave          62 max          62 min
Histogram: 1 0 0 0 0 0 0 0 0 0
Nghost:            546 ave         546 max         546 min
Histogram: 1 0 0 0 0 0 0 0 0 0
Neighs:              0 ave           0 max           0 min
Histogram: 1 0 0 0 0 0 0 0 0 0
FullNghs:         9974 ave        9974 max        9974 min
Histogram: 1 0 0 0 0 0 0 0 0 0

Total # of neighbors = 9974
Ave neighs/atom = 160.87097
Neighbor list builds = 0
Dangerous builds = 0

next nr
jump ${simname}.in loopmin
jump LCBOP.in loopmin

variable        energy equal pe
fix             output all ave/time 1 1 1 v_energy file ${simname}_energy.data
fix             output all ave/time 1 1 1 v_energy file LCBOP_energy.data
dump            dump1 all custom 1 ${simname}.lammpstrj id type x y z fx fy fz
dump            dump1 all custom 1 LCBOP.lammpstrj id type x y z fx fy fz
dump_modify     dump1 sort id

fix             nve all nve
run             0
Per MPI rank memory allocation (min/avg/max) = 4.037 | 4.037 | 4.037 Mbytes
   Step          Temp          PotEng           Lx             Ly             Lz            Pxx            Pyy            Pzz            Fmax          Fnorm     
      1553  1.869001156999429e-10   -452.8433013662336    9.745520440031427     8.43986827555411    50.84931906003438 -0.00672582816997686 -0.006722941444019534 -8.614963344207786e-05 2.470658121542235e-05 6.002603988727237e-05
Loop time of 5.99e-07 on 1 procs for 0 steps with 62 atoms

834.7% CPU use with 1 MPI tasks x no OpenMP threads

MPI task timing breakdown:
Section |  min time  |  avg time  |  max time  |%varavg| %total
---------------------------------------------------------------
Pair    | 0          | 0          | 0          |   0.0 |  0.00
Neigh   | 0          | 0          | 0          |   0.0 |  0.00
Comm    | 0          | 0          | 0          |   0.0 |  0.00
Output  | 0          | 0          | 0          |   0.0 |  0.00
Modify  | 0          | 0          | 0          |   0.0 |  0.00
Other   |            | 5.99e-07   |            |       |100.00

Nlocal:             62 ave          62 max          62 min
Histogram: 1 0 0 0 0 0 0 0 0 0
Nghost:            546 ave         546 max         546 min
Histogram: 1 0 0 0 0 0 0 0 0 0
Neighs:              0 ave           0 max           0 min
Histogram: 1 0 0 0 0 0 0 0 0 0
FullNghs:         9974 ave        9974 max        9974 min
Histogram: 1 0 0 0 0 0 0 0 0 0

Total # of neighbors = 9974
Ave neighs/atom = 160.87097
Neighbor list builds = 0
Dangerous builds = 0
Total wall time: 0:00:01
