units           real
atom_style      charge
boundary        p p p
processors		  * * 1
read_data		    AA3_charge.data
Reading data file ...
  triclinic box = (0 0 0) to (9.795473 8.4832305 49.951752) with tilt (4.8985647 -5.3998159e-06 0.0001022259)
WARNING: Triclinic box skew is large. LAMMPS will run inefficiently. (src/domain.cpp:220)
  1 by 1 by 1 MPI processor grid
  reading atoms ...
  62 atoms
  read_data CPU = 0.007 seconds
mass            1 12.011

# Define potentials
pair_style      reax/c NULL
pair_coeff      * * ffield.reax.cho C
Reading potential file ffield.reax.cho with DATE: 2011-02-18
neigh_modify    every 1 delay 0 check yes
fix             1 all qeq/reax 1 0.0 10.0 1.0e-6 reax/c


# Variable
variable        thermofrq equal 100
variable        Nloop equal 100     # number of loop to run
variable        binding equal pe


# Output
thermo          ${thermofrq}
thermo          100
thermo_style    custom step temp pe press lx ly xy
thermo_modify   line one format float %20.16g
thermo_modify   flush yes norm no lost warn

# Minimize the system in loops
timestep        1.0e-3
variable        nr loop ${Nloop}
variable        nr loop 100
label           loopmin

# Minimize the with cg + box/relax
  fix             frb all box/relax tri 0.0 couple none
  min_style       cg
  min_modify      line quadratic
  minimize        0.0 2.306e-2 10000 10000

CITE-CITE-CITE-CITE-CITE-CITE-CITE-CITE-CITE-CITE-CITE-CITE-CITE

Your simulation uses code contributions which should be cited:

- pair reaxff command: doi:10.1016/j.parco.2011.08.005

@Article{Aktulga12,
 author = {H. M. Aktulga and J. C. Fogarty and S. A. Pandit and A. Y. Grama},
 title = {Parallel Reactive Molecular Dynamics: {N}umerical Methods and Algorithmic Techniques},
 journal = {Parallel Computing},
 year =    2012,
 volume =  38,
 number =  {4--5},
 pages =   {245--259}
}

- fix qeq/reaxff command: doi:10.1016/j.parco.2011.08.005

@Article{Aktulga12,
 author = {H. M. Aktulga and J. C. Fogarty and S. A. Pandit and A. Y. Grama},
 title = {Parallel Reactive Molecular Dynamics: {N}umerical Methods and Algorithmic Techniques},
 journal = {Parallel Computing},
 year =    2012,
 volume =  38,
 pages =   {245--259}
}

CITE-CITE-CITE-CITE-CITE-CITE-CITE-CITE-CITE-CITE-CITE-CITE-CITE

Neighbor list info ...
  update: every = 1 steps, delay = 0 steps, check = yes
  max neighbors/atom: 2000, page size: 100000
  master list distance cutoff = 12
  ghost atom cutoff = 12
  binsize = 6, bins = 3 2 9
  2 neighbor lists, perpetual/occasional/extra = 2 0 0
  (1) pair reax/c, perpetual
      attributes: half, newton off, ghost
      pair build: half/bin/newtoff/ghost
      stencil: full/ghost/bin/3d
      bin: standard
  (2) fix qeq/reax, perpetual, copy from (1)
      attributes: half, newton off
      pair build: copy
      stencil: none
      bin: none
WARNING: Energy due to 6 extra global DOFs will be included in minimizer energies
 (src/min.cpp:225)
Per MPI rank memory allocation (min/avg/max) = 20.66 | 20.66 | 20.66 Mbytes
   Step          Temp          PotEng         Press            Lx             Ly             Xy      
         0                     0   -11669.30360485992    194095.7414507252          9.795473045    8.483230478099999         4.8985647205
       100                     0   -11969.63273280885    108271.8194249248    9.893414447730668    8.568062782880922    4.899533997677318
       200                     0   -12073.05088981282   -1921.977891737085     9.96148213301352    8.627125059875388    4.929237165905678
       300                     0   -12081.45793079578   -865.2001762928508    9.958597791946382    8.624623375838388     4.97279095918628
       400                     0   -12090.07288744902   -1776.221994751749    9.952562693321365    8.619373217829052    4.975303920070527
       500                     0   -12102.38509621777    141.9286360237506    9.946668915532623    8.614198605378895    4.972832411909464
       600                     0   -12104.38495811583   -1367.481079538572     9.94892233198078    8.616099701776818    4.974820384916824
       700                     0   -12105.86158474866   -689.1681712245115    9.950967923950282    8.617856070965564    4.975595047495688
       800                     0   -12107.35745362421   -1427.812595053228    9.952347202420164    8.618853248105754    4.976337961941803
       900                     0   -12108.40925774578    596.1096221138173    9.952987753159253    8.619593632441283    4.976756036802978
      1000                     0   -12109.24054347711    167.0475335917097    9.953671588998317    8.620180703953714    4.977197116613562
      1100                     0   -12110.04324615726    1882.682733895622    9.953812291780174     8.62030937289507    4.977554052076002
      1200                     0   -12110.57795857834    -324.265670339549    9.954748918014181    8.621108130797703    4.977382344856949
      1300                     0   -12111.14774221777   -11.98323408733307    9.955212984896118    8.621457827418562    4.982409449643255
      1400                     0   -12111.50398020841   -1822.337485265669    9.956059488697786    8.622221179297854    4.976326205668864
      1500                     0   -12111.92880418191   -613.2327530509345    9.957130265461613    8.622038393383383    4.977824964567056
      1600                     0   -12112.24879320936    398.5056836977828     9.95603554095935    8.624062624355171    4.978998655402511
      1700                     0   -12112.43385626311   -18.78478174778008    9.957782834187867    8.623712786134382    4.979008078638845
      1800                     0   -12112.60775750622   0.2700763256194306    9.958390668133655    8.624160114888445    4.979561161185147
      1900                     0   -12112.77538277903    168.4865125258425    9.959219689635704    8.624719063011858    4.978972129611313
      2000                     0   -12112.87315800653    153.4004923168534    9.958970413308286    8.626000566858751    4.980191701853281
      2100                     0   -12112.93369155357    468.1322466995575    9.960214011130365    8.625708859771525    4.979952011527564
      2200                     0   -12112.97428392728   -112.9481340705273    9.960881573972545    8.625862876977324    4.979822018903317
      2300                     0   -12113.02135073596    29.74058825244951    9.961089294746644    8.626515138266955    4.980621650840852
      2400                     0   -12113.02575115807    70.75363255387379    9.960614984211231    8.626904796658739    4.980698483905405
      2416                     0   -12113.02645843508   -55.39422688277379    9.961120403382218    8.626464607626261    4.981089480407102
Loop time of 13.0321 on 1 procs for 2416 steps with 62 atoms

100.5% CPU use with 1 MPI tasks x no OpenMP threads

Minimization stats:
  Stopping criterion = linesearch alpha is zero
  Energy initial, next-to-last, final = 
     -11669.3036048599  -12113.0264584827  -12113.0264584351
  Force two-norm initial, final = 24164.163 9.4850316
  Force max component initial, final = 17062.011 5.8058552
  Final line search alpha, max atom move = 8.1583268e-11 4.7366064e-10
  Iterations, force evaluations = 2416 3656

MPI task timing breakdown:
Section |  min time  |  avg time  |  max time  |%varavg| %total
---------------------------------------------------------------
Pair    | 11.589     | 11.589     | 11.589     |   0.0 | 88.93
Neigh   | 0.0020081  | 0.0020081  | 0.0020081  |   0.0 |  0.02
Comm    | 0.015805   | 0.015805   | 0.015805   |   0.0 |  0.12
Output  | 0.019222   | 0.019222   | 0.019222   |   0.0 |  0.15
Modify  | 1.3573     | 1.3573     | 1.3573     |   0.0 | 10.41
Other   |            | 0.04854    |            |       |  0.37

Nlocal:             62 ave          62 max          62 min
Histogram: 1 0 0 0 0 0 0 0 0 0
Nghost:            820 ave         820 max         820 min
Histogram: 1 0 0 0 0 0 0 0 0 0
Neighs:          18015 ave       18015 max       18015 min
Histogram: 1 0 0 0 0 0 0 0 0 0

Total # of neighbors = 18015
Ave neighs/atom = 290.56452
Neighbor list builds = 2
Dangerous builds = 0

# Minimize the with fire
  unfix           frb
  min_style       fire
  minimize        0.0 2.306e-2 10000 10000
  Parameters for fire:
    dmax  delaystep dtgrow dtshrink alpha0 alphashrink tmax tmin   integrator   halfstepback   abcfire  
     0.1     20      1.1     0.5     0.25     0.99      10  0.02 eulerimplicit      yes          no     
Per MPI rank memory allocation (min/avg/max) = 19.54 | 19.54 | 19.54 Mbytes
   Step          Temp          PotEng         Press            Lx             Ly             Xy      
      2416                     0   -12113.02645839714   -55.39422749562477    9.961120403382218    8.626464607626261    4.981089480407102
      2500  0.0002240187957686414   -12113.02650777622   -54.20821023016308    9.961120403382218    8.626464607626261    4.981089480407102
      2600  0.001465427311178258   -12113.02675778099   -43.85761834437674    9.961120403382218    8.626464607626261    4.981089480407102
      2700  0.001878759548908133   -12113.02690729665   -24.55897596661752    9.961120403382218    8.626464607626261    4.981089480407102
      2800  0.001388155441409671   -12113.02695369306   -13.41340986573966    9.961120403382218    8.626464607626261    4.981089480407102
      2900  0.0007206180508133714   -12113.02695887861   -16.87686380677526    9.961120403382218    8.626464607626261    4.981089480407102
      3000  0.0005906946526910119    -12113.0269658129   -25.10254983187325    9.961120403382218    8.626464607626261    4.981089480407102
      3100  0.0006371998729617695   -12113.02698226969   -34.71731162076763    9.961120403382218    8.626464607626261    4.981089480407102
      3200  0.0007550214041491472     -12113.027006236   -44.43162434485453    9.961120403382218    8.626464607626261    4.981089480407102
      3300  0.0008871265025406464   -12113.02703098677   -53.03310416754616    9.961120403382218    8.626464607626261    4.981089480407102
      3400  0.0009932623593589018   -12113.02705063181   -59.38672250800698    9.961120403382218    8.626464607626261    4.981089480407102
      3500  0.001061010050184209   -12113.02706311809   -62.60131531459336    9.961120403382218    8.626464607626261    4.981089480407102
      3600  0.001101131212944597   -12113.02707049904   -62.09566881763781    9.961120403382218    8.626464607626261    4.981089480407102
      3700  0.001134614376339628   -12113.02707657148   -57.59704489152527    9.961120403382218    8.626464607626261    4.981089480407102
      3800  0.001183292464689544   -12113.02708546104   -49.15172311418927    9.961120403382218    8.626464607626261    4.981089480407102
      3900  0.001257181927732039   -12113.02709901551   -37.16695226839071    9.961120403382218    8.626464607626261    4.981089480407102
      4000  0.001348387298631404   -12113.02711559635   -22.49065573932126    9.961120403382218    8.626464607626261    4.981089480407102
      4100  0.001436130876324431   -12113.02713151913   -6.478026728762303    9.961120403382218    8.626464607626261    4.981089480407102
      4200  0.001493727204488171   -12113.02714194363    9.044732278295461    9.961120403382218    8.626464607626261    4.981089480407102
      4300  7.432493700868347e-08   -12113.02714424343     18.9210085846247    9.961120403382218    8.626464607626261    4.981089480407102
      4400  5.630530058572323e-06   -12113.02714541559    16.77083050860026    9.961120403382218    8.626464607626261    4.981089480407102
      4500  1.841302870223983e-05   -12113.02714788774    10.89458197677749    9.961120403382218    8.626464607626261    4.981089480407102
      4600  3.230966589119865e-05   -12113.02715059046    1.702546232324938    9.961120403382218    8.626464607626261    4.981089480407102
      4700  4.281046396383195e-05   -12113.02715291632   -8.965616181093706    9.961120403382218    8.626464607626261    4.981089480407102
      4800  5.030086250580362e-05   -12113.02715499505   -18.95987112703062    9.961120403382218    8.626464607626261    4.981089480407102
      4900  5.829327793250304e-05   -12113.02715694905   -27.31279821078327    9.961120403382218    8.626464607626261    4.981089480407102
      5000  6.863785490236904e-05   -12113.02715912759   -33.80753393115716    9.961120403382218    8.626464607626261    4.981089480407102
      5100  8.159679497121224e-05   -12113.02716150554   -38.25492262553799    9.961120403382218    8.626464607626261    4.981089480407102
      5200  9.682150906717378e-05   -12113.02716445273   -40.46532143782695    9.961120403382218    8.626464607626261    4.981089480407102
      5300  0.000113554811547356   -12113.02716749763   -40.37836738994794    9.961120403382218    8.626464607626261    4.981089480407102
      5400  0.000130904314436582   -12113.02717064343   -38.13039207749335    9.961120403382218    8.626464607626261    4.981089480407102
      5500  0.0001482665265266928     -12113.027173778   -34.05288351628987    9.961120403382218    8.626464607626261    4.981089480407102
      5600  0.0001655875559225935   -12113.02717696947   -28.62588876224811    9.961120403382218    8.626464607626261    4.981089480407102
      5700  0.000183265311969829   -12113.02718018029   -22.40910933547037    9.961120403382218    8.626464607626261    4.981089480407102
      5800  0.0002017880839760219   -12113.02718352879   -15.96876162920224    9.961120403382218    8.626464607626261    4.981089480407102
      5900  0.000221366392829787   -12113.02718709658   -9.813723257468602    9.961120403382218    8.626464607626261    4.981089480407102
      6000  0.0002417767047507478   -12113.02719081078   -4.349759188544149    9.961120403382218    8.626464607626261    4.981089480407102
      6100  0.0002624865593247862   -12113.02719456414   0.1447246662396084    9.961120403382218    8.626464607626261    4.981089480407102
      6200  0.0002829815278770924   -12113.02719825583    3.522608446482398    9.961120403382218    8.626464607626261    4.981089480407102
      6300  0.0003031116259709572   -12113.02720192657    5.755884145575823    9.961120403382218    8.626464607626261    4.981089480407102
      6400  0.0003232393057652395   -12113.02720566215    6.913016554661317    9.961120403382218    8.626464607626261    4.981089480407102
      6500  0.0003440579158784079   -12113.02720938356    7.131491132143601    9.961120403382218    8.626464607626261    4.981089480407102
      6600  0.0003661607604711781    -12113.0272134326    6.590288869883529    9.961120403382218    8.626464607626261    4.981089480407102
      6700  0.0003896301733901822   -12113.02721771633    5.485482667640959    9.961120403382218    8.626464607626261    4.981089480407102
      6800  0.0004139108633981994     -12113.027222087    4.010916410824453    9.961120403382218    8.626464607626261    4.981089480407102
      6900  0.0004380401530545156   -12113.02722644147    2.345063523969062    9.961120403382218    8.626464607626261    4.981089480407102
      7000  0.0004610952947569798   -12113.02723069208   0.6448201967941397    9.961120403382218    8.626464607626261    4.981089480407102
      7100  0.0004826119793605747   -12113.02723456156    -0.95350039912059    9.961120403382218    8.626464607626261    4.981089480407102
      7200  0.0005027491709880669   -12113.02723826236   -2.326898113030422    9.961120403382218    8.626464607626261    4.981089480407102
      7300  0.0005221071263000835    -12113.0272417963   -3.354930571123949    9.961120403382218    8.626464607626261    4.981089480407102
      7400  0.0005413031484921777   -12113.02724527319    -3.90977504695114    9.961120403382218    8.626464607626261    4.981089480407102
      7500  0.0005605662503903071   -12113.02724868735    -3.85178874764385    9.961120403382218    8.626464607626261    4.981089480407102
      7600  0.0005796082858669676   -12113.02725224303   -3.033798506019248    9.961120403382218    8.626464607626261    4.981089480407102
      7700  0.0005978393171984363   -12113.02725552756   -1.314865064558407    9.961120403382218    8.626464607626261    4.981089480407102
      7800  0.0006147472345157943   -12113.02725860815    1.418377757301367    9.961120403382218    8.626464607626261    4.981089480407102
      7900  0.0006301623969875765   -12113.02726133345    5.226147843551051    9.961120403382218    8.626464607626261    4.981089480407102
      8000  0.0006442557607080571   -12113.02726394481     10.0898718603853    9.961120403382218    8.626464607626261    4.981089480407102
      8100  0.0006573315231134051    -12113.0272663663    15.89071217102731    9.961120403382218    8.626464607626261    4.981089480407102
      8200  0.0006695855164273483   -12113.02726860844    22.39692059512776    9.961120403382218    8.626464607626261    4.981089480407102
      8300  0.000680971923470201   -12113.02727068141    29.26470280981412    9.961120403382218    8.626464607626261    4.981089480407102
      8400  0.000691238051854451   -12113.02727252775    36.05659853816258    9.961120403382218    8.626464607626261    4.981089480407102
      8500  0.0007001103200630329    -12113.0272740985     42.2789838553003    9.961120403382218    8.626464607626261    4.981089480407102
      8600  0.0007075369122503876   -12113.02727549483     47.4363428273638    9.961120403382218    8.626464607626261    4.981089480407102
      8700  0.0007138225558752063   -12113.02727659221     51.0954195598771    9.961120403382218    8.626464607626261    4.981089480407102
      8800  0.0007195062435517008   -12113.02727767287    52.94890675550039    9.961120403382218    8.626464607626261    4.981089480407102
      8900  0.0007249942947231882   -12113.02727867566    52.86705703280024    9.961120403382218    8.626464607626261    4.981089480407102
      9000  0.0007301864767581162   -12113.02727954791    50.92723696807251    9.961120403382218    8.626464607626261    4.981089480407102
      9100  0.0007344076708591241   -12113.02728035785    47.41516138598345    9.961120403382218    8.626464607626261    4.981089480407102
      9200  0.0007367481581495933   -12113.02728075553    42.79674361615834    9.961120403382218    8.626464607626261    4.981089480407102
      9300  2.990957806931957e-08   -12113.02728079998    40.55792332977041    9.961120403382218    8.626464607626261    4.981089480407102
      9400  3.713441359295253e-07   -12113.02728089847     40.3815930740594    9.961120403382218    8.626464607626261    4.981089480407102
      9500  1.088312122292456e-06   -12113.02728102717      40.027059150576    9.961120403382218    8.626464607626261    4.981089480407102
      9600  2.070119094744569e-06   -12113.02728123377    39.56019549036838    9.961120403382218    8.626464607626261    4.981089480407102
      9700  3.200253126693726e-06   -12113.02728147264    39.07089704024372    9.961120403382218    8.626464607626261    4.981089480407102
      9800  4.407112400363756e-06   -12113.02728160431    38.62798417144482    9.961120403382218    8.626464607626261    4.981089480407102
      9900  5.658771135489775e-06   -12113.02728190715    38.26891470822437    9.961120403382218    8.626464607626261    4.981089480407102
     10000  6.935017903009911e-06   -12113.02728207937     38.0122583971614    9.961120403382218    8.626464607626261    4.981089480407102
     10100  8.205998417578468e-06   -12113.02728239797    37.86555931500625    9.961120403382218    8.626464607626261    4.981089480407102
     10200  9.425499863670074e-06   -12113.02728261403    37.82400444712573    9.961120403382218    8.626464607626261    4.981089480407102
     10251  1.00083479991682e-05   -12113.02728274225    37.83737228078724    9.961120403382218    8.626464607626261    4.981089480407102
Loop time of 26.8421 on 1 procs for 7835 steps with 62 atoms

99.6% CPU use with 1 MPI tasks x no OpenMP threads

Minimization stats:
  Stopping criterion = force tolerance
  Energy initial, next-to-last, final = 
     -12113.0264583971  -12113.0272827034  -12113.0272827423
  Force two-norm initial, final = 3.7488176 0.023047777
  Force max component initial, final = 1.0990612 0.007542336
  Final line search alpha, max atom move = 0 0
  Iterations, force evaluations = 7835 7838

MPI task timing breakdown:
Section |  min time  |  avg time  |  max time  |%varavg| %total
---------------------------------------------------------------
Pair    | 23.85      | 23.85      | 23.85      |   0.0 | 88.85
Neigh   | 0          | 0          | 0          |   0.0 |  0.00
Comm    | 0.038801   | 0.038801   | 0.038801   |   0.0 |  0.14
Output  | 0.12039    | 0.12039    | 0.12039    |   0.0 |  0.45
Modify  | 2.7984     | 2.7984     | 2.7984     |   0.0 | 10.43
Other   |            | 0.03437    |            |       |  0.13

Nlocal:             62 ave          62 max          62 min
Histogram: 1 0 0 0 0 0 0 0 0 0
Nghost:            820 ave         820 max         820 min
Histogram: 1 0 0 0 0 0 0 0 0 0
Neighs:          18039 ave       18039 max       18039 min
Histogram: 1 0 0 0 0 0 0 0 0 0

Total # of neighbors = 18039
Ave neighs/atom = 290.95161
Neighbor list builds = 0
Dangerous builds = 0

next nr
jump ${simname}.in loopmin
jump ReaxFF.in loopmin

# Minimize the with cg + box/relax
  fix             frb all box/relax tri 0.0 couple none
  min_style       cg
  min_modify      line quadratic
  minimize        0.0 2.306e-2 10000 10000
WARNING: Energy due to 6 extra global DOFs will be included in minimizer energies
 (src/min.cpp:225)
Per MPI rank memory allocation (min/avg/max) = 20.66 | 20.66 | 20.66 Mbytes
   Step          Temp          PotEng         Press            Lx             Ly             Xy      
     10251  1.00083479991682e-05   -12113.02728270094    37.83737157682096    9.961120403382218    8.626464607626261    4.981089480407102
     10300  1.00083479991682e-05    -12113.0273343376    5.287025690069637    9.961071621739443    8.626553618124548    4.980474796613591
     10383  1.00083479991682e-05   -12113.02734280297    1.340990208577129    9.961105003197183     8.62656546254626    4.980573640261091
Loop time of 1.16041 on 1 procs for 132 steps with 62 atoms

99.9% CPU use with 1 MPI tasks x no OpenMP threads

Minimization stats:
  Stopping criterion = linesearch alpha is zero
  Energy initial, next-to-last, final = 
     -12113.0272827009  -12113.0273429809   -12113.027342803
  Force two-norm initial, final = 4.7958543 0.14872312
  Force max component initial, final = 3.4958968 0.10214468
  Final line search alpha, max atom move = 4.7802767e-07 4.8827984e-08
  Iterations, force evaluations = 132 347

MPI task timing breakdown:
Section |  min time  |  avg time  |  max time  |%varavg| %total
---------------------------------------------------------------
Pair    | 1.0289     | 1.0289     | 1.0289     |   0.0 | 88.66
Neigh   | 0          | 0          | 0          |   0.0 |  0.00
Comm    | 0.0012853  | 0.0012853  | 0.0012853  |   0.0 |  0.11
Output  | 0.00059993 | 0.00059993 | 0.00059993 |   0.0 |  0.05
Modify  | 0.12528    | 0.12528    | 0.12528    |   0.0 | 10.80
Other   |            | 0.004371   |            |       |  0.38

Nlocal:             62 ave          62 max          62 min
Histogram: 1 0 0 0 0 0 0 0 0 0
Nghost:            820 ave         820 max         820 min
Histogram: 1 0 0 0 0 0 0 0 0 0
Neighs:          18039 ave       18039 max       18039 min
Histogram: 1 0 0 0 0 0 0 0 0 0

Total # of neighbors = 18039
Ave neighs/atom = 290.95161
Neighbor list builds = 0
Dangerous builds = 0

# Minimize the with fire
  unfix           frb
  min_style       fire
  minimize        0.0 2.306e-2 10000 10000
  Parameters for fire:
    dmax  delaystep dtgrow dtshrink alpha0 alphashrink tmax tmin   integrator   halfstepback   abcfire  
     0.1     20      1.1     0.5     0.25     0.99      10  0.02 eulerimplicit      yes          no     
Per MPI rank memory allocation (min/avg/max) = 19.54 | 19.54 | 19.54 Mbytes
   Step          Temp          PotEng         Press            Lx             Ly             Xy      
     10383                     0    -12113.0273429244    1.340971922017505    9.961105003197183     8.62656546254626    4.980573640261091
     10400  2.329633071890796e-11   -12113.02734295703    1.341016921429303    9.961105003197183     8.62656546254626    4.980573640261091
     10500  6.338250211649548e-08   -12113.02734296154    1.455752770844248    9.961105003197183     8.62656546254626    4.980573640261091
     10600  2.656888212269951e-07   -12113.02734296808    1.958594611320511    9.961105003197183     8.62656546254626    4.980573640261091
     10700  5.74414041076478e-07   -12113.02734306641    2.799915631227679    9.961105003197183     8.62656546254626    4.980573640261091
     10800  9.788737298250198e-07   -12113.02734313118    3.808280910853169    9.961105003197183     8.62656546254626    4.980573640261091
     10829  1.10994505603607e-06   -12113.02734315985    4.115014145695294    9.961105003197183     8.62656546254626    4.980573640261091
Loop time of 1.48652 on 1 procs for 446 steps with 62 atoms

99.8% CPU use with 1 MPI tasks x no OpenMP threads

Minimization stats:
  Stopping criterion = force tolerance
  Energy initial, next-to-last, final = 
     -12113.0273429244  -12113.0273431756  -12113.0273431598
  Force two-norm initial, final = 0.037935842 0.023056896
  Force max component initial, final = 0.0076835621 0.0060602877
  Final line search alpha, max atom move = 0 0
  Iterations, force evaluations = 446 447

MPI task timing breakdown:
Section |  min time  |  avg time  |  max time  |%varavg| %total
---------------------------------------------------------------
Pair    | 1.3244     | 1.3244     | 1.3244     |   0.0 | 89.10
Neigh   | 0          | 0          | 0          |   0.0 |  0.00
Comm    | 0.0019161  | 0.0019161  | 0.0019161  |   0.0 |  0.13
Output  | 0.0035871  | 0.0035871  | 0.0035871  |   0.0 |  0.24
Modify  | 0.15462    | 0.15462    | 0.15462    |   0.0 | 10.40
Other   |            | 0.001962   |            |       |  0.13

Nlocal:             62 ave          62 max          62 min
Histogram: 1 0 0 0 0 0 0 0 0 0
Nghost:            820 ave         820 max         820 min
Histogram: 1 0 0 0 0 0 0 0 0 0
Neighs:          18039 ave       18039 max       18039 min
Histogram: 1 0 0 0 0 0 0 0 0 0

Total # of neighbors = 18039
Ave neighs/atom = 290.95161
Neighbor list builds = 0
Dangerous builds = 0

next nr
jump ${simname}.in loopmin
jump ReaxFF.in loopmin

# Minimize the with cg + box/relax
  fix             frb all box/relax tri 0.0 couple none
  min_style       cg
  min_modify      line quadratic
  minimize        0.0 2.306e-2 10000 10000
WARNING: Energy due to 6 extra global DOFs will be included in minimizer energies
 (src/min.cpp:225)
Per MPI rank memory allocation (min/avg/max) = 20.66 | 20.66 | 20.66 Mbytes
   Step          Temp          PotEng         Press            Lx             Ly             Xy      
     10829  1.10994505603607e-06   -12113.02734317863    4.115014418217451    9.961105003197183     8.62656546254626    4.980573640261091
     10860  1.10994505603607e-06   -12113.02734454218   -1.400197325240948    9.961126781851556     8.62657766580714    4.980559763599157
Loop time of 0.335665 on 1 procs for 31 steps with 62 atoms

99.9% CPU use with 1 MPI tasks x no OpenMP threads

Minimization stats:
  Stopping criterion = linesearch alpha is zero
  Energy initial, next-to-last, final = 
     -12113.0273431786  -12113.0273446424  -12113.0273445422
  Force two-norm initial, final = 0.48017109 0.19721606
  Force max component initial, final = 0.33916486 0.15593381
  Final line search alpha, max atom move = 1.8737296e-07 2.921778e-08
  Iterations, force evaluations = 31 99

MPI task timing breakdown:
Section |  min time  |  avg time  |  max time  |%varavg| %total
---------------------------------------------------------------
Pair    | 0.29643    | 0.29643    | 0.29643    |   0.0 | 88.31
Neigh   | 0          | 0          | 0          |   0.0 |  0.00
Comm    | 0.00039886 | 0.00039886 | 0.00039886 |   0.0 |  0.12
Output  | 0          | 0          | 0          |   0.0 |  0.00
Modify  | 0.037169   | 0.037169   | 0.037169   |   0.0 | 11.07
Other   |            | 0.001666   |            |       |  0.50

Nlocal:             62 ave          62 max          62 min
Histogram: 1 0 0 0 0 0 0 0 0 0
Nghost:            820 ave         820 max         820 min
Histogram: 1 0 0 0 0 0 0 0 0 0
Neighs:          18039 ave       18039 max       18039 min
Histogram: 1 0 0 0 0 0 0 0 0 0

Total # of neighbors = 18039
Ave neighs/atom = 290.95161
Neighbor list builds = 0
Dangerous builds = 0

# Minimize the with fire
  unfix           frb
  min_style       fire
  minimize        0.0 2.306e-2 10000 10000
  Parameters for fire:
    dmax  delaystep dtgrow dtshrink alpha0 alphashrink tmax tmin   integrator   halfstepback   abcfire  
     0.1     20      1.1     0.5     0.25     0.99      10  0.02 eulerimplicit      yes          no     
Per MPI rank memory allocation (min/avg/max) = 19.54 | 19.54 | 19.54 Mbytes
   Step          Temp          PotEng         Press            Lx             Ly             Xy      
     10860                     0   -12113.02734462593   -1.400197794765628    9.961126781851556     8.62657766580714    4.980559763599157
     10900  1.474378588424572e-09   -12113.02734461828   -1.401674121113058    9.961126781851556     8.62657766580714    4.980559763599157
     11000  2.92627467034898e-07   -12113.02734460467   -1.721618195992643    9.961126781851556     8.62657766580714    4.980559763599157
     11100  8.080246320372609e-07    -12113.0273447883   -2.797640214618309    9.961126781851556     8.62657766580714    4.980559763599157
     11175  1.169173198576916e-06   -12113.02734485334   -4.039363411998556    9.961126781851556     8.62657766580714    4.980559763599157
Loop time of 1.05822 on 1 procs for 315 steps with 62 atoms

99.3% CPU use with 1 MPI tasks x no OpenMP threads

Minimization stats:
  Stopping criterion = force tolerance
  Energy initial, next-to-last, final = 
     -12113.0273446259  -12113.0273448667  -12113.0273448533
  Force two-norm initial, final = 0.065687064 0.022961834
  Force max component initial, final = 0.013489469 0.0041088798
  Final line search alpha, max atom move = 0 0
  Iterations, force evaluations = 315 316

MPI task timing breakdown:
Section |  min time  |  avg time  |  max time  |%varavg| %total
---------------------------------------------------------------
Pair    | 0.93718    | 0.93718    | 0.93718    |   0.0 | 88.56
Neigh   | 0          | 0          | 0          |   0.0 |  0.00
Comm    | 0.0014615  | 0.0014615  | 0.0014615  |   0.0 |  0.14
Output  | 0.0031114  | 0.0031114  | 0.0031114  |   0.0 |  0.29
Modify  | 0.11004    | 0.11004    | 0.11004    |   0.0 | 10.40
Other   |            | 0.006426   |            |       |  0.61

Nlocal:             62 ave          62 max          62 min
Histogram: 1 0 0 0 0 0 0 0 0 0
Nghost:            820 ave         820 max         820 min
Histogram: 1 0 0 0 0 0 0 0 0 0
Neighs:          18039 ave       18039 max       18039 min
Histogram: 1 0 0 0 0 0 0 0 0 0

Total # of neighbors = 18039
Ave neighs/atom = 290.95161
Neighbor list builds = 0
Dangerous builds = 0

next nr
jump ${simname}.in loopmin
jump ReaxFF.in loopmin

# Minimize the with cg + box/relax
  fix             frb all box/relax tri 0.0 couple none
  min_style       cg
  min_modify      line quadratic
  minimize        0.0 2.306e-2 10000 10000
WARNING: Energy due to 6 extra global DOFs will be included in minimizer energies
 (src/min.cpp:225)
Per MPI rank memory allocation (min/avg/max) = 20.66 | 20.66 | 20.66 Mbytes
   Step          Temp          PotEng         Press            Lx             Ly             Xy      
     11175  1.169173198576916e-06   -12113.02734481109   -4.039364112715181    9.961126781851556     8.62657766580714    4.980559763599157
     11199  1.169173198576916e-06   -12113.02734507432  0.03886379425093886    9.961120782230894    8.626580230646288    4.980564039870778
Loop time of 0.465558 on 1 procs for 24 steps with 62 atoms

99.9% CPU use with 1 MPI tasks x no OpenMP threads

Minimization stats:
  Stopping criterion = linesearch alpha is zero
  Energy initial, next-to-last, final = 
     -12113.0273448111  -12113.0273451018  -12113.0273450743
  Force two-norm initial, final = 0.47344757 0.043204437
  Force max component initial, final = 0.36258811 0.02531515
  Final line search alpha, max atom move = 5.8496345e-06 1.4808437e-07
  Iterations, force evaluations = 24 140

MPI task timing breakdown:
Section |  min time  |  avg time  |  max time  |%varavg| %total
---------------------------------------------------------------
Pair    | 0.4138     | 0.4138     | 0.4138     |   0.0 | 88.88
Neigh   | 0          | 0          | 0          |   0.0 |  0.00
Comm    | 0.00051878 | 0.00051878 | 0.00051878 |   0.0 |  0.11
Output  | 0          | 0          | 0          |   0.0 |  0.00
Modify  | 0.049158   | 0.049158   | 0.049158   |   0.0 | 10.56
Other   |            | 0.002081   |            |       |  0.45

Nlocal:             62 ave          62 max          62 min
Histogram: 1 0 0 0 0 0 0 0 0 0
Nghost:            820 ave         820 max         820 min
Histogram: 1 0 0 0 0 0 0 0 0 0
Neighs:          18039 ave       18039 max       18039 min
Histogram: 1 0 0 0 0 0 0 0 0 0

Total # of neighbors = 18039
Ave neighs/atom = 290.95161
Neighbor list builds = 0
Dangerous builds = 0

# Minimize the with fire
  unfix           frb
  min_style       fire
  minimize        0.0 2.306e-2 10000 10000
  Parameters for fire:
    dmax  delaystep dtgrow dtshrink alpha0 alphashrink tmax tmin   integrator   halfstepback   abcfire  
     0.1     20      1.1     0.5     0.25     0.99      10  0.02 eulerimplicit      yes          no     
Per MPI rank memory allocation (min/avg/max) = 19.54 | 19.54 | 19.54 Mbytes
   Step          Temp          PotEng         Press            Lx             Ly             Xy      
     11199                     0   -12113.02734500732   0.0388600059946468    9.961120782230894    8.626580230646288    4.980564039870778
     11200  4.602748478451352e-14   -12113.02734506417  0.03886046662358104    9.961120782230894    8.626580230646288    4.980564039870778
Loop time of 0.0106939 on 1 procs for 1 steps with 62 atoms

95.8% CPU use with 1 MPI tasks x no OpenMP threads

Minimization stats:
  Stopping criterion = force tolerance
  Energy initial, next-to-last, final = 
     -12113.0273450073  -12113.0273450073  -12113.0273450642
  Force two-norm initial, final = 0.021920445 0.021920439
  Force max component initial, final = 0.0047165308 0.0047165286
  Final line search alpha, max atom move = 0 0
  Iterations, force evaluations = 1 2

MPI task timing breakdown:
Section |  min time  |  avg time  |  max time  |%varavg| %total
---------------------------------------------------------------
Pair    | 0.0089988  | 0.0089988  | 0.0089988  |   0.0 | 84.15
Neigh   | 0          | 0          | 0          |   0.0 |  0.00
Comm    | 1.4448e-05 | 1.4448e-05 | 1.4448e-05 |   0.0 |  0.14
Output  | 0          | 0          | 0          |   0.0 |  0.00
Modify  | 0.0011063  | 0.0011063  | 0.0011063  |   0.0 | 10.34
Other   |            | 0.0005744  |            |       |  5.37

Nlocal:             62 ave          62 max          62 min
Histogram: 1 0 0 0 0 0 0 0 0 0
Nghost:            820 ave         820 max         820 min
Histogram: 1 0 0 0 0 0 0 0 0 0
Neighs:          18039 ave       18039 max       18039 min
Histogram: 1 0 0 0 0 0 0 0 0 0

Total # of neighbors = 18039
Ave neighs/atom = 290.95161
Neighbor list builds = 0
Dangerous builds = 0

next nr
jump ${simname}.in loopmin
jump ReaxFF.in loopmin

# Minimize the with cg + box/relax
  fix             frb all box/relax tri 0.0 couple none
  min_style       cg
  min_modify      line quadratic
  minimize        0.0 2.306e-2 10000 10000
WARNING: Energy due to 6 extra global DOFs will be included in minimizer energies
 (src/min.cpp:225)
Per MPI rank memory allocation (min/avg/max) = 20.66 | 20.66 | 20.66 Mbytes
   Step          Temp          PotEng         Press            Lx             Ly             Xy      
     11200  4.602748478451352e-14   -12113.02734509181  0.03886125683607012    9.961120782230894    8.626580230646288    4.980564039870778
     11202  4.602748478451352e-14   -12113.02734506912  -0.6520225264254395    9.961120847705297    8.626580340876851    4.980564121374008
Loop time of 0.0752919 on 1 procs for 2 steps with 62 atoms

99.2% CPU use with 1 MPI tasks x no OpenMP threads

Minimization stats:
  Stopping criterion = linesearch alpha is zero
  Energy initial, next-to-last, final = 
     -12113.0273450918  -12113.0273451113  -12113.0273450691
  Force two-norm initial, final = 0.043204399 0.070093054
  Force max component initial, final = 0.025315124 0.047191304
  Final line search alpha, max atom move = 2.0913971e-06 9.8695756e-08
  Iterations, force evaluations = 2 21

MPI task timing breakdown:
Section |  min time  |  avg time  |  max time  |%varavg| %total
---------------------------------------------------------------
Pair    | 0.066415   | 0.066415   | 0.066415   |   0.0 | 88.21
Neigh   | 0          | 0          | 0          |   0.0 |  0.00
Comm    | 0.00010184 | 0.00010184 | 0.00010184 |   0.0 |  0.14
Output  | 0          | 0          | 0          |   0.0 |  0.00
Modify  | 0.0077532  | 0.0077532  | 0.0077532  |   0.0 | 10.30
Other   |            | 0.001022   |            |       |  1.36

Nlocal:             62 ave          62 max          62 min
Histogram: 1 0 0 0 0 0 0 0 0 0
Nghost:            820 ave         820 max         820 min
Histogram: 1 0 0 0 0 0 0 0 0 0
Neighs:          18039 ave       18039 max       18039 min
Histogram: 1 0 0 0 0 0 0 0 0 0

Total # of neighbors = 18039
Ave neighs/atom = 290.95161
Neighbor list builds = 0
Dangerous builds = 0

# Minimize the with fire
  unfix           frb
  min_style       fire
  minimize        0.0 2.306e-2 10000 10000
  Parameters for fire:
    dmax  delaystep dtgrow dtshrink alpha0 alphashrink tmax tmin   integrator   halfstepback   abcfire  
     0.1     20      1.1     0.5     0.25     0.99      10  0.02 eulerimplicit      yes          no     
Per MPI rank memory allocation (min/avg/max) = 19.54 | 19.54 | 19.54 Mbytes
   Step          Temp          PotEng         Press            Lx             Ly             Xy      
     11202                     0   -12113.02734502591  -0.6520238067619351    9.961120847705297    8.626580340876851    4.980564121374008
     11203  3.818162759506461e-14   -12113.02734505603  -0.6520234859680393    9.961120847705297    8.626580340876851    4.980564121374008
Loop time of 0.0107334 on 1 procs for 1 steps with 62 atoms

95.3% CPU use with 1 MPI tasks x no OpenMP threads

Minimization stats:
  Stopping criterion = force tolerance
  Energy initial, next-to-last, final = 
     -12113.0273450259  -12113.0273450259   -12113.027345056
  Force two-norm initial, final = 0.019964935 0.019964932
  Force max component initial, final = 0.0042441192 0.0042441177
  Final line search alpha, max atom move = 0 0
  Iterations, force evaluations = 1 2

MPI task timing breakdown:
Section |  min time  |  avg time  |  max time  |%varavg| %total
---------------------------------------------------------------
Pair    | 0.0089544  | 0.0089544  | 0.0089544  |   0.0 | 83.42
Neigh   | 0          | 0          | 0          |   0.0 |  0.00
Comm    | 1.6603e-05 | 1.6603e-05 | 1.6603e-05 |   0.0 |  0.15
Output  | 0          | 0          | 0          |   0.0 |  0.00
Modify  | 0.001108   | 0.001108   | 0.001108   |   0.0 | 10.32
Other   |            | 0.0006544  |            |       |  6.10

Nlocal:             62 ave          62 max          62 min
Histogram: 1 0 0 0 0 0 0 0 0 0
Nghost:            820 ave         820 max         820 min
Histogram: 1 0 0 0 0 0 0 0 0 0
Neighs:          18039 ave       18039 max       18039 min
Histogram: 1 0 0 0 0 0 0 0 0 0

Total # of neighbors = 18039
Ave neighs/atom = 290.95161
Neighbor list builds = 0
Dangerous builds = 0

next nr
jump ${simname}.in loopmin
jump ReaxFF.in loopmin

# Minimize the with cg + box/relax
  fix             frb all box/relax tri 0.0 couple none
  min_style       cg
  min_modify      line quadratic
  minimize        0.0 2.306e-2 10000 10000
WARNING: Energy due to 6 extra global DOFs will be included in minimizer energies
 (src/min.cpp:225)
Per MPI rank memory allocation (min/avg/max) = 20.66 | 20.66 | 20.66 Mbytes
   Step          Temp          PotEng         Press            Lx             Ly             Xy      
     11203  3.818162759506461e-14   -12113.02734501331  -0.6520246351037109    9.961120847705297    8.626580340876851    4.980564121374008
     11216  3.818162759506461e-14   -12113.02734543933   0.7941471485728396    9.961111290371324     8.62658174395237    4.980568076779283
Loop time of 0.276943 on 1 procs for 13 steps with 62 atoms

98.9% CPU use with 1 MPI tasks x no OpenMP threads

Minimization stats:
  Stopping criterion = linesearch alpha is zero
  Energy initial, next-to-last, final = 
     -12113.0273450133  -12113.0273454882  -12113.0273454393
  Force two-norm initial, final = 0.070093274 0.08999931
  Force max component initial, final = 0.047191498 0.052155197
  Final line search alpha, max atom move = 9.9682891e-07 5.1989808e-08
  Iterations, force evaluations = 13 79

MPI task timing breakdown:
Section |  min time  |  avg time  |  max time  |%varavg| %total
---------------------------------------------------------------
Pair    | 0.24384    | 0.24384    | 0.24384    |   0.0 | 88.05
Neigh   | 0          | 0          | 0          |   0.0 |  0.00
Comm    | 0.00033459 | 0.00033459 | 0.00033459 |   0.0 |  0.12
Output  | 0          | 0          | 0          |   0.0 |  0.00
Modify  | 0.028514   | 0.028514   | 0.028514   |   0.0 | 10.30
Other   |            | 0.004256   |            |       |  1.54

Nlocal:             62 ave          62 max          62 min
Histogram: 1 0 0 0 0 0 0 0 0 0
Nghost:            820 ave         820 max         820 min
Histogram: 1 0 0 0 0 0 0 0 0 0
Neighs:          18039 ave       18039 max       18039 min
Histogram: 1 0 0 0 0 0 0 0 0 0

Total # of neighbors = 18039
Ave neighs/atom = 290.95161
Neighbor list builds = 0
Dangerous builds = 0

# Minimize the with fire
  unfix           frb
  min_style       fire
  minimize        0.0 2.306e-2 10000 10000
  Parameters for fire:
    dmax  delaystep dtgrow dtshrink alpha0 alphashrink tmax tmin   integrator   halfstepback   abcfire  
     0.1     20      1.1     0.5     0.25     0.99      10  0.02 eulerimplicit      yes          no     
Per MPI rank memory allocation (min/avg/max) = 19.54 | 19.54 | 19.54 Mbytes
   Step          Temp          PotEng         Press            Lx             Ly             Xy      
     11216                     0   -12113.02734546728   0.7941478464715466    9.961111290371324     8.62658174395237    4.980568076779283
     11300  2.962557785589503e-08   -12113.02734549271   0.7611896938823342    9.961111290371324     8.62658174395237    4.980568076779283
     11390  1.823320850925542e-07   -12113.02734540838   0.5208626391929487    9.961111290371324     8.62658174395237    4.980568076779283
Loop time of 0.591358 on 1 procs for 174 steps with 62 atoms

99.5% CPU use with 1 MPI tasks x no OpenMP threads

Minimization stats:
  Stopping criterion = force tolerance
  Energy initial, next-to-last, final = 
     -12113.0273454673   -12113.027345518  -12113.0273454084
  Force two-norm initial, final = 0.043054968 0.022964469
  Force max component initial, final = 0.012408415 0.0067247985
  Final line search alpha, max atom move = 0 0
  Iterations, force evaluations = 174 175

MPI task timing breakdown:
Section |  min time  |  avg time  |  max time  |%varavg| %total
---------------------------------------------------------------
Pair    | 0.52455    | 0.52455    | 0.52455    |   0.0 | 88.70
Neigh   | 0          | 0          | 0          |   0.0 |  0.00
Comm    | 0.00078313 | 0.00078313 | 0.00078313 |   0.0 |  0.13
Output  | 0.00065953 | 0.00065953 | 0.00065953 |   0.0 |  0.11
Modify  | 0.062409   | 0.062409   | 0.062409   |   0.0 | 10.55
Other   |            | 0.002957   |            |       |  0.50

Nlocal:             62 ave          62 max          62 min
Histogram: 1 0 0 0 0 0 0 0 0 0
Nghost:            820 ave         820 max         820 min
Histogram: 1 0 0 0 0 0 0 0 0 0
Neighs:          18039 ave       18039 max       18039 min
Histogram: 1 0 0 0 0 0 0 0 0 0

Total # of neighbors = 18039
Ave neighs/atom = 290.95161
Neighbor list builds = 0
Dangerous builds = 0

next nr
jump ${simname}.in loopmin
jump ReaxFF.in loopmin

# Minimize the with cg + box/relax
  fix             frb all box/relax tri 0.0 couple none
  min_style       cg
  min_modify      line quadratic
  minimize        0.0 2.306e-2 10000 10000
WARNING: Energy due to 6 extra global DOFs will be included in minimizer energies
 (src/min.cpp:225)
Per MPI rank memory allocation (min/avg/max) = 20.66 | 20.66 | 20.66 Mbytes
   Step          Temp          PotEng         Press            Lx             Ly             Xy      
     11390  1.823320850925542e-07   -12113.02734549917   0.5208646159399274    9.961111290371324     8.62658174395237    4.980568076779283
     11392  1.823320850925542e-07   -12113.02734546128  -0.1245920403236575    9.961111408902049    8.626581783535411    4.980568041520741
Loop time of 0.109542 on 1 procs for 2 steps with 62 atoms

99.5% CPU use with 1 MPI tasks x no OpenMP threads

Minimization stats:
  Stopping criterion = linesearch alpha is zero
  Energy initial, next-to-last, final = 
     -12113.0273454992  -12113.0273455395  -12113.0273454613
  Force two-norm initial, final = 0.065023915 0.043530415
  Force max component initial, final = 0.05284815 0.032040028
  Final line search alpha, max atom move = 4.0401456e-06 1.2944638e-07
  Iterations, force evaluations = 2 31

MPI task timing breakdown:
Section |  min time  |  avg time  |  max time  |%varavg| %total
---------------------------------------------------------------
Pair    | 0.097057   | 0.097057   | 0.097057   |   0.0 | 88.60
Neigh   | 0          | 0          | 0          |   0.0 |  0.00
Comm    | 0.00018135 | 0.00018135 | 0.00018135 |   0.0 |  0.17
Output  | 0          | 0          | 0          |   0.0 |  0.00
Modify  | 0.011264   | 0.011264   | 0.011264   |   0.0 | 10.28
Other   |            | 0.001039   |            |       |  0.95

Nlocal:             62 ave          62 max          62 min
Histogram: 1 0 0 0 0 0 0 0 0 0
Nghost:            820 ave         820 max         820 min
Histogram: 1 0 0 0 0 0 0 0 0 0
Neighs:          18039 ave       18039 max       18039 min
Histogram: 1 0 0 0 0 0 0 0 0 0

Total # of neighbors = 18039
Ave neighs/atom = 290.95161
Neighbor list builds = 0
Dangerous builds = 0

# Minimize the with fire
  unfix           frb
  min_style       fire
  minimize        0.0 2.306e-2 10000 10000
  Parameters for fire:
    dmax  delaystep dtgrow dtshrink alpha0 alphashrink tmax tmin   integrator   halfstepback   abcfire  
     0.1     20      1.1     0.5     0.25     0.99      10  0.02 eulerimplicit      yes          no     
Per MPI rank memory allocation (min/avg/max) = 19.54 | 19.54 | 19.54 Mbytes
   Step          Temp          PotEng         Press            Lx             Ly             Xy      
     11392                     0   -12113.02734547621  -0.1245918651053218    9.961111408902049    8.626581783535411    4.980568041520741
     11393  4.963357848840883e-14   -12113.02734549521  -0.1245913641136222    9.961111408902049    8.626581783535411    4.980568041520741
Loop time of 0.0164961 on 1 procs for 1 steps with 62 atoms

72.3% CPU use with 1 MPI tasks x no OpenMP threads

Minimization stats:
  Stopping criterion = force tolerance
  Energy initial, next-to-last, final = 
     -12113.0273454762  -12113.0273454762  -12113.0273454952
  Force two-norm initial, final = 0.02276295 0.022762945
  Force max component initial, final = 0.0064266376 0.0064266365
  Final line search alpha, max atom move = 0 0
  Iterations, force evaluations = 1 2

MPI task timing breakdown:
Section |  min time  |  avg time  |  max time  |%varavg| %total
---------------------------------------------------------------
Pair    | 0.010742   | 0.010742   | 0.010742   |   0.0 | 65.12
Neigh   | 0          | 0          | 0          |   0.0 |  0.00
Comm    | 1.6941e-05 | 1.6941e-05 | 1.6941e-05 |   0.0 |  0.10
Output  | 0          | 0          | 0          |   0.0 |  0.00
Modify  | 0.00099705 | 0.00099705 | 0.00099705 |   0.0 |  6.04
Other   |            | 0.00474    |            |       | 28.73

Nlocal:             62 ave          62 max          62 min
Histogram: 1 0 0 0 0 0 0 0 0 0
Nghost:            820 ave         820 max         820 min
Histogram: 1 0 0 0 0 0 0 0 0 0
Neighs:          18039 ave       18039 max       18039 min
Histogram: 1 0 0 0 0 0 0 0 0 0

Total # of neighbors = 18039
Ave neighs/atom = 290.95161
Neighbor list builds = 0
Dangerous builds = 0

next nr
jump ${simname}.in loopmin
jump ReaxFF.in loopmin

# Minimize the with cg + box/relax
  fix             frb all box/relax tri 0.0 couple none
  min_style       cg
  min_modify      line quadratic
  minimize        0.0 2.306e-2 10000 10000
WARNING: Energy due to 6 extra global DOFs will be included in minimizer energies
 (src/min.cpp:225)
Per MPI rank memory allocation (min/avg/max) = 20.66 | 20.66 | 20.66 Mbytes
   Step          Temp          PotEng         Press            Lx             Ly             Xy      
     11393  4.963357848840883e-14   -12113.02734551555  -0.1245913414863437    9.961111408902049    8.626581783535411    4.980568041520741
     11400  4.963357848840883e-14   -12113.02734554683   0.3930758646515842    9.961114160681388    8.626579173187444     4.98056495553211
     11401  4.963357848840883e-14   -12113.02734553889   0.3930758519194057    9.961114160681388    8.626579173187444     4.98056495553211
Loop time of 0.229585 on 1 procs for 8 steps with 62 atoms

99.5% CPU use with 1 MPI tasks x no OpenMP threads

Minimization stats:
  Stopping criterion = linesearch alpha is zero
  Energy initial, next-to-last, final = 
     -12113.0273455155  -12113.0273455468  -12113.0273455389
  Force two-norm initial, final = 0.043530341 0.050580781
  Force max component initial, final = 0.032039935 0.035615943
  Final line search alpha, max atom move = 4.6743127e-06 1.6648006e-07
  Iterations, force evaluations = 8 67

MPI task timing breakdown:
Section |  min time  |  avg time  |  max time  |%varavg| %total
---------------------------------------------------------------
Pair    | 0.20332    | 0.20332    | 0.20332    |   0.0 | 88.56
Neigh   | 0          | 0          | 0          |   0.0 |  0.00
Comm    | 0.00030549 | 0.00030549 | 0.00030549 |   0.0 |  0.13
Output  | 0.00053222 | 0.00053222 | 0.00053222 |   0.0 |  0.23
Modify  | 0.023745   | 0.023745   | 0.023745   |   0.0 | 10.34
Other   |            | 0.001682   |            |       |  0.73

Nlocal:             62 ave          62 max          62 min
Histogram: 1 0 0 0 0 0 0 0 0 0
Nghost:            820 ave         820 max         820 min
Histogram: 1 0 0 0 0 0 0 0 0 0
Neighs:          18039 ave       18039 max       18039 min
Histogram: 1 0 0 0 0 0 0 0 0 0

Total # of neighbors = 18039
Ave neighs/atom = 290.95161
Neighbor list builds = 0
Dangerous builds = 0

# Minimize the with fire
  unfix           frb
  min_style       fire
  minimize        0.0 2.306e-2 10000 10000
  Parameters for fire:
    dmax  delaystep dtgrow dtshrink alpha0 alphashrink tmax tmin   integrator   halfstepback   abcfire  
     0.1     20      1.1     0.5     0.25     0.99      10  0.02 eulerimplicit      yes          no     
Per MPI rank memory allocation (min/avg/max) = 19.54 | 19.54 | 19.54 Mbytes
   Step          Temp          PotEng         Press            Lx             Ly             Xy      
     11401                     0   -12113.02734554912   0.3930758000805604    9.961114160681388    8.626579173187444     4.98056495553211
     11402  2.218959565294594e-14    -12113.0273455251   0.3930750368828851    9.961114160681388    8.626579173187444     4.98056495553211
Loop time of 0.0110296 on 1 procs for 1 steps with 62 atoms

95.4% CPU use with 1 MPI tasks x no OpenMP threads

Minimization stats:
  Stopping criterion = force tolerance
  Energy initial, next-to-last, final = 
     -12113.0273455491  -12113.0273455491  -12113.0273455251
  Force two-norm initial, final = 0.015220033 0.015220029
  Force max component initial, final = 0.0036338031 0.003633802
  Final line search alpha, max atom move = 0 0
  Iterations, force evaluations = 1 2

MPI task timing breakdown:
Section |  min time  |  avg time  |  max time  |%varavg| %total
---------------------------------------------------------------
Pair    | 0.0090886  | 0.0090886  | 0.0090886  |   0.0 | 82.40
Neigh   | 0          | 0          | 0          |   0.0 |  0.00
Comm    | 1.4904e-05 | 1.4904e-05 | 1.4904e-05 |   0.0 |  0.14
Output  | 0          | 0          | 0          |   0.0 |  0.00
Modify  | 0.0011507  | 0.0011507  | 0.0011507  |   0.0 | 10.43
Other   |            | 0.0007753  |            |       |  7.03

Nlocal:             62 ave          62 max          62 min
Histogram: 1 0 0 0 0 0 0 0 0 0
Nghost:            820 ave         820 max         820 min
Histogram: 1 0 0 0 0 0 0 0 0 0
Neighs:          18039 ave       18039 max       18039 min
Histogram: 1 0 0 0 0 0 0 0 0 0

Total # of neighbors = 18039
Ave neighs/atom = 290.95161
Neighbor list builds = 0
Dangerous builds = 0

next nr
jump ${simname}.in loopmin
jump ReaxFF.in loopmin

# Minimize the with cg + box/relax
  fix             frb all box/relax tri 0.0 couple none
  min_style       cg
  min_modify      line quadratic
  minimize        0.0 2.306e-2 10000 10000
WARNING: Energy due to 6 extra global DOFs will be included in minimizer energies
 (src/min.cpp:225)
Per MPI rank memory allocation (min/avg/max) = 20.66 | 20.66 | 20.66 Mbytes
   Step          Temp          PotEng         Press            Lx             Ly             Xy      
     11402  2.218959565294594e-14    -12113.0273454717   0.3930740552991491    9.961114160681388    8.626579173187444     4.98056495553211
     11403  2.218959565294594e-14   -12113.02734553917 -0.07236612076655474    9.961114218481097    8.626579228021939    4.980564956175283
Loop time of 0.0106923 on 1 procs for 1 steps with 62 atoms

95.6% CPU use with 1 MPI tasks x no OpenMP threads

Minimization stats:
  Stopping criterion = force tolerance
  Energy initial, next-to-last, final = 
     -12113.0273454717  -12113.0273454717  -12113.0273455392
  Force two-norm initial, final = 0.050580582 0.016602893
  Force max component initial, final = 0.035615777 0.0057763731
  Final line search alpha, max atom move = 0.0028077445 1.621858e-05
  Iterations, force evaluations = 1 2

MPI task timing breakdown:
Section |  min time  |  avg time  |  max time  |%varavg| %total
---------------------------------------------------------------
Pair    | 0.0090453  | 0.0090453  | 0.0090453  |   0.0 | 84.60
Neigh   | 0          | 0          | 0          |   0.0 |  0.00
Comm    | 1.2268e-05 | 1.2268e-05 | 1.2268e-05 |   0.0 |  0.11
Output  | 0          | 0          | 0          |   0.0 |  0.00
Modify  | 0.001022   | 0.001022   | 0.001022   |   0.0 |  9.56
Other   |            | 0.0006126  |            |       |  5.73

Nlocal:             62 ave          62 max          62 min
Histogram: 1 0 0 0 0 0 0 0 0 0
Nghost:            820 ave         820 max         820 min
Histogram: 1 0 0 0 0 0 0 0 0 0
Neighs:          18039 ave       18039 max       18039 min
Histogram: 1 0 0 0 0 0 0 0 0 0

Total # of neighbors = 18039
Ave neighs/atom = 290.95161
Neighbor list builds = 0
Dangerous builds = 0

# Minimize the with fire
  unfix           frb
  min_style       fire
  minimize        0.0 2.306e-2 10000 10000
  Parameters for fire:
    dmax  delaystep dtgrow dtshrink alpha0 alphashrink tmax tmin   integrator   halfstepback   abcfire  
     0.1     20      1.1     0.5     0.25     0.99      10  0.02 eulerimplicit      yes          no     
Per MPI rank memory allocation (min/avg/max) = 19.54 | 19.54 | 19.54 Mbytes
   Step          Temp          PotEng         Press            Lx             Ly             Xy      
     11403                     0   -12113.02734554123 -0.07236618034865575    9.961114218481097    8.626579228021939    4.980564956175283
     11404  2.105586623785768e-14   -12113.02734548357 -0.07236756723315575    9.961114218481097    8.626579228021939    4.980564956175283
Loop time of 0.0117369 on 1 procs for 1 steps with 62 atoms

94.3% CPU use with 1 MPI tasks x no OpenMP threads

Minimization stats:
  Stopping criterion = force tolerance
  Energy initial, next-to-last, final = 
     -12113.0273455412  -12113.0273455412  -12113.0273454836
  Force two-norm initial, final = 0.014826116 0.014826109
  Force max component initial, final = 0.0034205509 0.0034205477
  Final line search alpha, max atom move = 0 0
  Iterations, force evaluations = 1 2

MPI task timing breakdown:
Section |  min time  |  avg time  |  max time  |%varavg| %total
---------------------------------------------------------------
Pair    | 0.0098383  | 0.0098383  | 0.0098383  |   0.0 | 83.82
Neigh   | 0          | 0          | 0          |   0.0 |  0.00
Comm    | 1.5142e-05 | 1.5142e-05 | 1.5142e-05 |   0.0 |  0.13
Output  | 0          | 0          | 0          |   0.0 |  0.00
Modify  | 0.0010681  | 0.0010681  | 0.0010681  |   0.0 |  9.10
Other   |            | 0.0008153  |            |       |  6.95

Nlocal:             62 ave          62 max          62 min
Histogram: 1 0 0 0 0 0 0 0 0 0
Nghost:            820 ave         820 max         820 min
Histogram: 1 0 0 0 0 0 0 0 0 0
Neighs:          18039 ave       18039 max       18039 min
Histogram: 1 0 0 0 0 0 0 0 0 0

Total # of neighbors = 18039
Ave neighs/atom = 290.95161
Neighbor list builds = 0
Dangerous builds = 0

next nr
jump ${simname}.in loopmin
jump ReaxFF.in loopmin

# Minimize the with cg + box/relax
  fix             frb all box/relax tri 0.0 couple none
  min_style       cg
  min_modify      line quadratic
  minimize        0.0 2.306e-2 10000 10000
WARNING: Energy due to 6 extra global DOFs will be included in minimizer energies
 (src/min.cpp:225)
Per MPI rank memory allocation (min/avg/max) = 20.66 | 20.66 | 20.66 Mbytes
   Step          Temp          PotEng         Press            Lx             Ly             Xy      
     11404  2.105586623785768e-14   -12113.02734551445 -0.07236726662341914    9.961114218481097    8.626579228021939    4.980564956175283
     11406  2.105586623785768e-14   -12113.02734552917 -0.04981962740969212    9.961114164502236    8.626579275789872    4.980564975045077
Loop time of 0.0448175 on 1 procs for 2 steps with 62 atoms

97.6% CPU use with 1 MPI tasks x no OpenMP threads

Minimization stats:
  Stopping criterion = force tolerance
  Energy initial, next-to-last, final = 
     -12113.0273455145  -12113.0273455302  -12113.0273455292
  Force two-norm initial, final = 0.016602937 0.015536221
  Force max component initial, final = 0.0057764627 0.0040030179
  Final line search alpha, max atom move = 0.0010668301 4.2705399e-06
  Iterations, force evaluations = 2 12

MPI task timing breakdown:
Section |  min time  |  avg time  |  max time  |%varavg| %total
---------------------------------------------------------------
Pair    | 0.038833   | 0.038833   | 0.038833   |   0.0 | 86.65
Neigh   | 0          | 0          | 0          |   0.0 |  0.00
Comm    | 5.5373e-05 | 5.5373e-05 | 5.5373e-05 |   0.0 |  0.12
Output  | 0          | 0          | 0          |   0.0 |  0.00
Modify  | 0.0045726  | 0.0045726  | 0.0045726  |   0.0 | 10.20
Other   |            | 0.001356   |            |       |  3.03

Nlocal:             62 ave          62 max          62 min
Histogram: 1 0 0 0 0 0 0 0 0 0
Nghost:            820 ave         820 max         820 min
Histogram: 1 0 0 0 0 0 0 0 0 0
Neighs:          18039 ave       18039 max       18039 min
Histogram: 1 0 0 0 0 0 0 0 0 0

Total # of neighbors = 18039
Ave neighs/atom = 290.95161
Neighbor list builds = 0
Dangerous builds = 0

# Minimize the with fire
  unfix           frb
  min_style       fire
  minimize        0.0 2.306e-2 10000 10000
  Parameters for fire:
    dmax  delaystep dtgrow dtshrink alpha0 alphashrink tmax tmin   integrator   halfstepback   abcfire  
     0.1     20      1.1     0.5     0.25     0.99      10  0.02 eulerimplicit      yes          no     
Per MPI rank memory allocation (min/avg/max) = 19.54 | 19.54 | 19.54 Mbytes
   Step          Temp          PotEng         Press            Lx             Ly             Xy      
     11406                     0   -12113.02734553016 -0.04981999442160272    9.961114164502236    8.626579275789872    4.980564975045077
     11407   2.0566374222784e-14   -12113.02734549878 -0.04982040332174285    9.961114164502236    8.626579275789872    4.980564975045077
Loop time of 0.0108883 on 1 procs for 1 steps with 62 atoms

96.5% CPU use with 1 MPI tasks x no OpenMP threads

Minimization stats:
  Stopping criterion = force tolerance
  Energy initial, next-to-last, final = 
     -12113.0273455302  -12113.0273455302  -12113.0273454988
  Force two-norm initial, final = 0.014652768 0.014652767
  Force max component initial, final = 0.0034073688 0.0034073664
  Final line search alpha, max atom move = 0 0
  Iterations, force evaluations = 1 2

MPI task timing breakdown:
Section |  min time  |  avg time  |  max time  |%varavg| %total
---------------------------------------------------------------
Pair    | 0.0092814  | 0.0092814  | 0.0092814  |   0.0 | 85.24
Neigh   | 0          | 0          | 0          |   0.0 |  0.00
Comm    | 1.4795e-05 | 1.4795e-05 | 1.4795e-05 |   0.0 |  0.14
Output  | 0          | 0          | 0          |   0.0 |  0.00
Modify  | 0.0010866  | 0.0010866  | 0.0010866  |   0.0 |  9.98
Other   |            | 0.0005055  |            |       |  4.64

Nlocal:             62 ave          62 max          62 min
Histogram: 1 0 0 0 0 0 0 0 0 0
Nghost:            820 ave         820 max         820 min
Histogram: 1 0 0 0 0 0 0 0 0 0
Neighs:          18039 ave       18039 max       18039 min
Histogram: 1 0 0 0 0 0 0 0 0 0

Total # of neighbors = 18039
Ave neighs/atom = 290.95161
Neighbor list builds = 0
Dangerous builds = 0

next nr
jump ${simname}.in loopmin
jump ReaxFF.in loopmin

# Minimize the with cg + box/relax
  fix             frb all box/relax tri 0.0 couple none
  min_style       cg
  min_modify      line quadratic
  minimize        0.0 2.306e-2 10000 10000
WARNING: Energy due to 6 extra global DOFs will be included in minimizer energies
 (src/min.cpp:225)
Per MPI rank memory allocation (min/avg/max) = 20.66 | 20.66 | 20.66 Mbytes
   Step          Temp          PotEng         Press            Lx             Ly             Xy      
     11407   2.0566374222784e-14   -12113.02734546981 -0.04982135945181362    9.961114164502236    8.626579275789872    4.980564975045077
     11413   2.0566374222784e-14   -12113.02734556373  0.03801364513146911    9.961116661560229    8.626576699971139    4.980561432071024
Loop time of 0.0970856 on 1 procs for 6 steps with 62 atoms

99.4% CPU use with 1 MPI tasks x no OpenMP threads

Minimization stats:
  Stopping criterion = force tolerance
  Energy initial, next-to-last, final = 
     -12113.0273454698  -12113.0273456061  -12113.0273455637
  Force two-norm initial, final = 0.015536284 0.020237726
  Force max component initial, final = 0.004003162 0.008780995
  Final line search alpha, max atom move = 0.00078973797 6.9346852e-06
  Iterations, force evaluations = 6 28

MPI task timing breakdown:
Section |  min time  |  avg time  |  max time  |%varavg| %total
---------------------------------------------------------------
Pair    | 0.08562    | 0.08562    | 0.08562    |   0.0 | 88.19
Neigh   | 0          | 0          | 0          |   0.0 |  0.00
Comm    | 0.00010139 | 0.00010139 | 0.00010139 |   0.0 |  0.10
Output  | 0          | 0          | 0          |   0.0 |  0.00
Modify  | 0.010372   | 0.010372   | 0.010372   |   0.0 | 10.68
Other   |            | 0.0009926  |            |       |  1.02

Nlocal:             62 ave          62 max          62 min
Histogram: 1 0 0 0 0 0 0 0 0 0
Nghost:            820 ave         820 max         820 min
Histogram: 1 0 0 0 0 0 0 0 0 0
Neighs:          18039 ave       18039 max       18039 min
Histogram: 1 0 0 0 0 0 0 0 0 0

Total # of neighbors = 18039
Ave neighs/atom = 290.95161
Neighbor list builds = 0
Dangerous builds = 0

# Minimize the with fire
  unfix           frb
  min_style       fire
  minimize        0.0 2.306e-2 10000 10000
  Parameters for fire:
    dmax  delaystep dtgrow dtshrink alpha0 alphashrink tmax tmin   integrator   halfstepback   abcfire  
     0.1     20      1.1     0.5     0.25     0.99      10  0.02 eulerimplicit      yes          no     
Per MPI rank memory allocation (min/avg/max) = 19.54 | 19.54 | 19.54 Mbytes
   Step          Temp          PotEng         Press            Lx             Ly             Xy      
     11413                     0   -12113.02734557778  0.03801382939519253    9.961116661560229    8.626576699971139    4.980561432071024
     11414  2.463933315133798e-14   -12113.02734555863  0.03801314208512197    9.961116661560229    8.626576699971139    4.980561432071024
Loop time of 0.0118946 on 1 procs for 1 steps with 62 atoms

85.5% CPU use with 1 MPI tasks x no OpenMP threads

Minimization stats:
  Stopping criterion = force tolerance
  Energy initial, next-to-last, final = 
     -12113.0273455778  -12113.0273455778  -12113.0273455586
  Force two-norm initial, final = 0.016038185 0.016038177
  Force max component initial, final = 0.0036402709 0.0036402718
  Final line search alpha, max atom move = 0 0
  Iterations, force evaluations = 1 2

MPI task timing breakdown:
Section |  min time  |  avg time  |  max time  |%varavg| %total
---------------------------------------------------------------
Pair    | 0.0089996  | 0.0089996  | 0.0089996  |   0.0 | 75.66
Neigh   | 0          | 0          | 0          |   0.0 |  0.00
Comm    | 1.3778e-05 | 1.3778e-05 | 1.3778e-05 |   0.0 |  0.12
Output  | 0          | 0          | 0          |   0.0 |  0.00
Modify  | 0.001033   | 0.001033   | 0.001033   |   0.0 |  8.68
Other   |            | 0.001848   |            |       | 15.54

Nlocal:             62 ave          62 max          62 min
Histogram: 1 0 0 0 0 0 0 0 0 0
Nghost:            820 ave         820 max         820 min
Histogram: 1 0 0 0 0 0 0 0 0 0
Neighs:          18039 ave       18039 max       18039 min
Histogram: 1 0 0 0 0 0 0 0 0 0

Total # of neighbors = 18039
Ave neighs/atom = 290.95161
Neighbor list builds = 0
Dangerous builds = 0

next nr
jump ${simname}.in loopmin
jump ReaxFF.in loopmin

# Minimize the with cg + box/relax
  fix             frb all box/relax tri 0.0 couple none
  min_style       cg
  min_modify      line quadratic
  minimize        0.0 2.306e-2 10000 10000
WARNING: Energy due to 6 extra global DOFs will be included in minimizer energies
 (src/min.cpp:225)
Per MPI rank memory allocation (min/avg/max) = 20.66 | 20.66 | 20.66 Mbytes
   Step          Temp          PotEng         Press            Lx             Ly             Xy      
     11414  2.463933315133798e-14   -12113.02734562668  0.03801457477925912    9.961116661560229    8.626576699971139    4.980561432071024
     11419  2.463933315133798e-14   -12113.02734556814 -0.09676841214268199    9.961115235269665    8.626577768010279    4.980564813678109
Loop time of 0.201236 on 1 procs for 5 steps with 62 atoms

99.7% CPU use with 1 MPI tasks x no OpenMP threads

Minimization stats:
  Stopping criterion = linesearch alpha is zero
  Energy initial, next-to-last, final = 
     -12113.0273456267  -12113.0273456418  -12113.0273455681
  Force two-norm initial, final = 0.020237764 0.034617331
  Force max component initial, final = 0.008781076 0.026005267
  Final line search alpha, max atom move = 7.510501e-06 1.9531259e-07
  Iterations, force evaluations = 5 59

MPI task timing breakdown:
Section |  min time  |  avg time  |  max time  |%varavg| %total
---------------------------------------------------------------
Pair    | 0.17828    | 0.17828    | 0.17828    |   0.0 | 88.59
Neigh   | 0          | 0          | 0          |   0.0 |  0.00
Comm    | 0.00024194 | 0.00024194 | 0.00024194 |   0.0 |  0.12
Output  | 0          | 0          | 0          |   0.0 |  0.00
Modify  | 0.0212     | 0.0212     | 0.0212     |   0.0 | 10.53
Other   |            | 0.001517   |            |       |  0.75

Nlocal:             62 ave          62 max          62 min
Histogram: 1 0 0 0 0 0 0 0 0 0
Nghost:            820 ave         820 max         820 min
Histogram: 1 0 0 0 0 0 0 0 0 0
Neighs:          18039 ave       18039 max       18039 min
Histogram: 1 0 0 0 0 0 0 0 0 0

Total # of neighbors = 18039
Ave neighs/atom = 290.95161
Neighbor list builds = 0
Dangerous builds = 0

# Minimize the with fire
  unfix           frb
  min_style       fire
  minimize        0.0 2.306e-2 10000 10000
  Parameters for fire:
    dmax  delaystep dtgrow dtshrink alpha0 alphashrink tmax tmin   integrator   halfstepback   abcfire  
     0.1     20      1.1     0.5     0.25     0.99      10  0.02 eulerimplicit      yes          no     
Per MPI rank memory allocation (min/avg/max) = 19.54 | 19.54 | 19.54 Mbytes
   Step          Temp          PotEng         Press            Lx             Ly             Xy      
     11419                     0   -12113.02734556544 -0.09676865848160719    9.961115235269665    8.626577768010279    4.980564813678109
     11420  2.338677544439432e-14   -12113.02734555797 -0.09676887246124936    9.961115235269665    8.626577768010279    4.980564813678109
Loop time of 0.010536 on 1 procs for 1 steps with 62 atoms

95.8% CPU use with 1 MPI tasks x no OpenMP threads

Minimization stats:
  Stopping criterion = force tolerance
  Energy initial, next-to-last, final = 
     -12113.0273455654  -12113.0273455654   -12113.027345558
  Force two-norm initial, final = 0.015625216 0.015625208
  Force max component initial, final = 0.0037021787 0.0037021722
  Final line search alpha, max atom move = 0 0
  Iterations, force evaluations = 1 2

MPI task timing breakdown:
Section |  min time  |  avg time  |  max time  |%varavg| %total
---------------------------------------------------------------
Pair    | 0.0088757  | 0.0088757  | 0.0088757  |   0.0 | 84.24
Neigh   | 0          | 0          | 0          |   0.0 |  0.00
Comm    | 1.4123e-05 | 1.4123e-05 | 1.4123e-05 |   0.0 |  0.13
Output  | 0          | 0          | 0          |   0.0 |  0.00
Modify  | 0.0010771  | 0.0010771  | 0.0010771  |   0.0 | 10.22
Other   |            | 0.0005691  |            |       |  5.40

Nlocal:             62 ave          62 max          62 min
Histogram: 1 0 0 0 0 0 0 0 0 0
Nghost:            820 ave         820 max         820 min
Histogram: 1 0 0 0 0 0 0 0 0 0
Neighs:          18039 ave       18039 max       18039 min
Histogram: 1 0 0 0 0 0 0 0 0 0

Total # of neighbors = 18039
Ave neighs/atom = 290.95161
Neighbor list builds = 0
Dangerous builds = 0

next nr
jump ${simname}.in loopmin
jump ReaxFF.in loopmin

# Minimize the with cg + box/relax
  fix             frb all box/relax tri 0.0 couple none
  min_style       cg
  min_modify      line quadratic
  minimize        0.0 2.306e-2 10000 10000
WARNING: Energy due to 6 extra global DOFs will be included in minimizer energies
 (src/min.cpp:225)
Per MPI rank memory allocation (min/avg/max) = 20.66 | 20.66 | 20.66 Mbytes
   Step          Temp          PotEng         Press            Lx             Ly             Xy      
     11420  2.338677544439432e-14   -12113.02734559502 -0.09676807553567057    9.961115235269665    8.626577768010279    4.980564813678109
     11422  2.338677544439432e-14   -12113.02734556122   0.0493508252006255    9.961115559562357    8.626577593052804    4.980563880145368
Loop time of 0.0180549 on 1 procs for 2 steps with 62 atoms

96.3% CPU use with 1 MPI tasks x no OpenMP threads

Minimization stats:
  Stopping criterion = force tolerance
  Energy initial, next-to-last, final = 
      -12113.027345595  -12113.0273455918  -12113.0273455612
  Force two-norm initial, final = 0.034617319 0.015953619
  Force max component initial, final = 0.026005248 0.0073387625
  Final line search alpha, max atom move = 0.00037036747 2.7180389e-06
  Iterations, force evaluations = 2 4

MPI task timing breakdown:
Section |  min time  |  avg time  |  max time  |%varavg| %total
---------------------------------------------------------------
Pair    | 0.015487   | 0.015487   | 0.015487   |   0.0 | 85.78
Neigh   | 0          | 0          | 0          |   0.0 |  0.00
Comm    | 2.0033e-05 | 2.0033e-05 | 2.0033e-05 |   0.0 |  0.11
Output  | 0          | 0          | 0          |   0.0 |  0.00
Modify  | 0.0017097  | 0.0017097  | 0.0017097  |   0.0 |  9.47
Other   |            | 0.0008381  |            |       |  4.64

Nlocal:             62 ave          62 max          62 min
Histogram: 1 0 0 0 0 0 0 0 0 0
Nghost:            820 ave         820 max         820 min
Histogram: 1 0 0 0 0 0 0 0 0 0
Neighs:          18039 ave       18039 max       18039 min
Histogram: 1 0 0 0 0 0 0 0 0 0

Total # of neighbors = 18039
Ave neighs/atom = 290.95161
Neighbor list builds = 0
Dangerous builds = 0

# Minimize the with fire
  unfix           frb
  min_style       fire
  minimize        0.0 2.306e-2 10000 10000
  Parameters for fire:
    dmax  delaystep dtgrow dtshrink alpha0 alphashrink tmax tmin   integrator   halfstepback   abcfire  
     0.1     20      1.1     0.5     0.25     0.99      10  0.02 eulerimplicit      yes          no     
Per MPI rank memory allocation (min/avg/max) = 19.54 | 19.54 | 19.54 Mbytes
   Step          Temp          PotEng         Press            Lx             Ly             Xy      
     11422                     0   -12113.02734559878  0.04935172857456235    9.961115559562357    8.626577593052804    4.980563880145368
     11423  1.628245213423097e-14   -12113.02734559431  0.04935141215963505    9.961115559562357    8.626577593052804    4.980563880145368
Loop time of 0.0107977 on 1 procs for 1 steps with 62 atoms

95.0% CPU use with 1 MPI tasks x no OpenMP threads

Minimization stats:
  Stopping criterion = force tolerance
  Energy initial, next-to-last, final = 
     -12113.0273455988  -12113.0273455988  -12113.0273455943
  Force two-norm initial, final = 0.013037693 0.013037686
  Force max component initial, final = 0.0025084531 0.0025084536
  Final line search alpha, max atom move = 0 0
  Iterations, force evaluations = 1 2

MPI task timing breakdown:
Section |  min time  |  avg time  |  max time  |%varavg| %total
---------------------------------------------------------------
Pair    | 0.0089933  | 0.0089933  | 0.0089933  |   0.0 | 83.29
Neigh   | 0          | 0          | 0          |   0.0 |  0.00
Comm    | 1.4706e-05 | 1.4706e-05 | 1.4706e-05 |   0.0 |  0.14
Output  | 0          | 0          | 0          |   0.0 |  0.00
Modify  | 0.0011274  | 0.0011274  | 0.0011274  |   0.0 | 10.44
Other   |            | 0.0006623  |            |       |  6.13

Nlocal:             62 ave          62 max          62 min
Histogram: 1 0 0 0 0 0 0 0 0 0
Nghost:            820 ave         820 max         820 min
Histogram: 1 0 0 0 0 0 0 0 0 0
Neighs:          18039 ave       18039 max       18039 min
Histogram: 1 0 0 0 0 0 0 0 0 0

Total # of neighbors = 18039
Ave neighs/atom = 290.95161
Neighbor list builds = 0
Dangerous builds = 0

next nr
jump ${simname}.in loopmin
jump ReaxFF.in loopmin

# Minimize the with cg + box/relax
  fix             frb all box/relax tri 0.0 couple none
  min_style       cg
  min_modify      line quadratic
  minimize        0.0 2.306e-2 10000 10000
WARNING: Energy due to 6 extra global DOFs will be included in minimizer energies
 (src/min.cpp:225)
Per MPI rank memory allocation (min/avg/max) = 20.66 | 20.66 | 20.66 Mbytes
   Step          Temp          PotEng         Press            Lx             Ly             Xy      
     11423  1.628245213423097e-14   -12113.02734559006  0.04935134359950857    9.961115559562357    8.626577593052804    4.980563880145368
     11425  1.628245213423097e-14   -12113.02734553881 -0.05759416322417189    9.961115639358765    8.626577440609141    4.980563143798132
Loop time of 0.0716576 on 1 procs for 2 steps with 62 atoms

99.2% CPU use with 1 MPI tasks x no OpenMP threads

Minimization stats:
  Stopping criterion = force tolerance
  Energy initial, next-to-last, final = 
     -12113.0273455901  -12113.0273456159  -12113.0273455388
  Force two-norm initial, final = 0.015953617 0.019031784
  Force max component initial, final = 0.0073387634 0.014739276
  Final line search alpha, max atom move = 2.9712785e-06 4.3794493e-08
  Iterations, force evaluations = 2 20

MPI task timing breakdown:
Section |  min time  |  avg time  |  max time  |%varavg| %total
---------------------------------------------------------------
Pair    | 0.063118   | 0.063118   | 0.063118   |   0.0 | 88.08
Neigh   | 0          | 0          | 0          |   0.0 |  0.00
Comm    | 7.8847e-05 | 7.8847e-05 | 7.8847e-05 |   0.0 |  0.11
Output  | 0          | 0          | 0          |   0.0 |  0.00
Modify  | 0.007519   | 0.007519   | 0.007519   |   0.0 | 10.49
Other   |            | 0.0009419  |            |       |  1.31

Nlocal:             62 ave          62 max          62 min
Histogram: 1 0 0 0 0 0 0 0 0 0
Nghost:            820 ave         820 max         820 min
Histogram: 1 0 0 0 0 0 0 0 0 0
Neighs:          18039 ave       18039 max       18039 min
Histogram: 1 0 0 0 0 0 0 0 0 0

Total # of neighbors = 18039
Ave neighs/atom = 290.95161
Neighbor list builds = 0
Dangerous builds = 0

# Minimize the with fire
  unfix           frb
  min_style       fire
  minimize        0.0 2.306e-2 10000 10000
  Parameters for fire:
    dmax  delaystep dtgrow dtshrink alpha0 alphashrink tmax tmin   integrator   halfstepback   abcfire  
     0.1     20      1.1     0.5     0.25     0.99      10  0.02 eulerimplicit      yes          no     
Per MPI rank memory allocation (min/avg/max) = 19.54 | 19.54 | 19.54 Mbytes
   Step          Temp          PotEng         Press            Lx             Ly             Xy      
     11425                     0   -12113.02734553102  -0.0575948995697337    9.961115639358765    8.626577440609141    4.980563143798132
     11426  1.265177495561029e-14   -12113.02734559634 -0.05759359297051376    9.961115639358765    8.626577440609141    4.980563143798132
Loop time of 0.0112414 on 1 procs for 1 steps with 62 atoms

96.3% CPU use with 1 MPI tasks x no OpenMP threads

Minimization stats:
  Stopping criterion = force tolerance
  Energy initial, next-to-last, final = 
      -12113.027345531   -12113.027345531  -12113.0273455963
  Force two-norm initial, final = 0.011492555 0.011492549
  Force max component initial, final = 0.0024625467 0.0024625431
  Final line search alpha, max atom move = 0 0
  Iterations, force evaluations = 1 2

MPI task timing breakdown:
Section |  min time  |  avg time  |  max time  |%varavg| %total
---------------------------------------------------------------
Pair    | 0.0095056  | 0.0095056  | 0.0095056  |   0.0 | 84.56
Neigh   | 0          | 0          | 0          |   0.0 |  0.00
Comm    | 1.8632e-05 | 1.8632e-05 | 1.8632e-05 |   0.0 |  0.17
Output  | 0          | 0          | 0          |   0.0 |  0.00
Modify  | 0.0011455  | 0.0011455  | 0.0011455  |   0.0 | 10.19
Other   |            | 0.0005717  |            |       |  5.09

Nlocal:             62 ave          62 max          62 min
Histogram: 1 0 0 0 0 0 0 0 0 0
Nghost:            820 ave         820 max         820 min
Histogram: 1 0 0 0 0 0 0 0 0 0
Neighs:          18039 ave       18039 max       18039 min
Histogram: 1 0 0 0 0 0 0 0 0 0

[...]
Modify  | 0.0010605  | 0.0010605  | 0.0010605  |   0.0 | 10.07
Other   |            | 0.0007251  |            |       |  6.88

Nlocal:             62 ave          62 max          62 min
Histogram: 1 0 0 0 0 0 0 0 0 0
Nghost:            820 ave         820 max         820 min
Histogram: 1 0 0 0 0 0 0 0 0 0
Neighs:          18039 ave       18039 max       18039 min
Histogram: 1 0 0 0 0 0 0 0 0 0

Total # of neighbors = 18039
Ave neighs/atom = 290.95161
Neighbor list builds = 0
Dangerous builds = 0

next nr
jump ${simname}.in loopmin
jump ReaxFF.in loopmin

# Minimize the with cg + box/relax
  fix             frb all box/relax tri 0.0 couple none
  min_style       cg
  min_modify      line quadratic
  minimize        0.0 2.306e-2 10000 10000
WARNING: Energy due to 6 extra global DOFs will be included in minimizer energies
 (src/min.cpp:225)
Per MPI rank memory allocation (min/avg/max) = 20.66 | 20.66 | 20.66 Mbytes
   Step          Temp          PotEng         Press            Lx             Ly             Xy      
     11756  7.052073700966977e-15   -12113.02734580555  -0.1874198838994677    9.961113815598996    8.626576385002789    4.980560819943429
     11758  7.052073700966977e-15   -12113.02734582214 -0.04930274484921384    9.961113799638039    8.626576372143731     4.98056083447692
Loop time of 0.0440692 on 1 procs for 2 steps with 62 atoms

98.7% CPU use with 1 MPI tasks x no OpenMP threads

Minimization stats:
  Stopping criterion = force tolerance
  Energy initial, next-to-last, final = 
     -12113.0273458055  -12113.0273458513  -12113.0273458221
  Force two-norm initial, final = 0.021839389 0.0096436193
  Force max component initial, final = 0.013889973 0.0030445011
  Final line search alpha, max atom move = 0.00085985876 2.6178409e-06
  Iterations, force evaluations = 2 12

MPI task timing breakdown:
Section |  min time  |  avg time  |  max time  |%varavg| %total
---------------------------------------------------------------
Pair    | 0.038522   | 0.038522   | 0.038522   |   0.0 | 87.41
Neigh   | 0          | 0          | 0          |   0.0 |  0.00
Comm    | 4.8779e-05 | 4.8779e-05 | 4.8779e-05 |   0.0 |  0.11
Output  | 0          | 0          | 0          |   0.0 |  0.00
Modify  | 0.0045309  | 0.0045309  | 0.0045309  |   0.0 | 10.28
Other   |            | 0.0009677  |            |       |  2.20

Nlocal:             62 ave          62 max          62 min
Histogram: 1 0 0 0 0 0 0 0 0 0
Nghost:            820 ave         820 max         820 min
Histogram: 1 0 0 0 0 0 0 0 0 0
Neighs:          18039 ave       18039 max       18039 min
Histogram: 1 0 0 0 0 0 0 0 0 0

Total # of neighbors = 18039
Ave neighs/atom = 290.95161
Neighbor list builds = 0
Dangerous builds = 0

# Minimize the with fire
  unfix           frb
  min_style       fire
  minimize        0.0 2.306e-2 10000 10000
  Parameters for fire:
    dmax  delaystep dtgrow dtshrink alpha0 alphashrink tmax tmin   integrator   halfstepback   abcfire  
     0.1     20      1.1     0.5     0.25     0.99      10  0.02 eulerimplicit      yes          no     
Per MPI rank memory allocation (min/avg/max) = 19.54 | 19.54 | 19.54 Mbytes
   Step          Temp          PotEng         Press            Lx             Ly             Xy      
     11758                     0   -12113.02734584746 -0.04930232924243444    9.961113799638039    8.626576372143731     4.98056083447692
     11759  6.562264275744156e-15   -12113.02734578625 -0.04930335273019631    9.961113799638039    8.626576372143731     4.98056083447692
Loop time of 0.0111954 on 1 procs for 1 steps with 62 atoms

88.7% CPU use with 1 MPI tasks x no OpenMP threads

Minimization stats:
  Stopping criterion = force tolerance
  Energy initial, next-to-last, final = 
     -12113.0273458475  -12113.0273458475  -12113.0273457862
  Force two-norm initial, final = 0.0082768977 0.0082768951
  Force max component initial, final = 0.0014055448 0.0014055428
  Final line search alpha, max atom move = 0 0
  Iterations, force evaluations = 1 2

MPI task timing breakdown:
Section |  min time  |  avg time  |  max time  |%varavg| %total
---------------------------------------------------------------
Pair    | 0.0087994  | 0.0087994  | 0.0087994  |   0.0 | 78.60
Neigh   | 0          | 0          | 0          |   0.0 |  0.00
Comm    | 1.2357e-05 | 1.2357e-05 | 1.2357e-05 |   0.0 |  0.11
Output  | 0          | 0          | 0          |   0.0 |  0.00
Modify  | 0.0010013  | 0.0010013  | 0.0010013  |   0.0 |  8.94
Other   |            | 0.001382   |            |       | 12.35

Nlocal:             62 ave          62 max          62 min
Histogram: 1 0 0 0 0 0 0 0 0 0
Nghost:            820 ave         820 max         820 min
Histogram: 1 0 0 0 0 0 0 0 0 0
Neighs:          18039 ave       18039 max       18039 min
Histogram: 1 0 0 0 0 0 0 0 0 0

Total # of neighbors = 18039
Ave neighs/atom = 290.95161
Neighbor list builds = 0
Dangerous builds = 0

next nr
jump ${simname}.in loopmin
jump ReaxFF.in loopmin

# Minimize the with cg + box/relax
  fix             frb all box/relax tri 0.0 couple none
  min_style       cg
  min_modify      line quadratic
  minimize        0.0 2.306e-2 10000 10000
WARNING: Energy due to 6 extra global DOFs will be included in minimizer energies
 (src/min.cpp:225)
Per MPI rank memory allocation (min/avg/max) = 20.66 | 20.66 | 20.66 Mbytes
   Step          Temp          PotEng         Press            Lx             Ly             Xy      
     11759  6.562264275744156e-15    -12113.0273458666 -0.04930215566908992    9.961113799638039    8.626576372143731     4.98056083447692
     11760  6.562264275744156e-15   -12113.02734583395   0.1562268996195472    9.961113773284197    8.626576350433922    4.980560841804279
Loop time of 0.0570607 on 1 procs for 1 steps with 62 atoms

99.4% CPU use with 1 MPI tasks x no OpenMP threads

Minimization stats:
  Stopping criterion = force tolerance
  Energy initial, next-to-last, final = 
     -12113.0273458666  -12113.0273458666  -12113.0273458339
  Force two-norm initial, final = 0.0096435839 0.021130192
  Force max component initial, final = 0.0030444498 0.013852731
  Final line search alpha, max atom move = 0.00025661451 3.5548117e-06
  Iterations, force evaluations = 1 16

MPI task timing breakdown:
Section |  min time  |  avg time  |  max time  |%varavg| %total
---------------------------------------------------------------
Pair    | 0.050483   | 0.050483   | 0.050483   |   0.0 | 88.47
Neigh   | 0          | 0          | 0          |   0.0 |  0.00
Comm    | 6.2401e-05 | 6.2401e-05 | 6.2401e-05 |   0.0 |  0.11
Output  | 0          | 0          | 0          |   0.0 |  0.00
Modify  | 0.0058934  | 0.0058934  | 0.0058934  |   0.0 | 10.33
Other   |            | 0.0006224  |            |       |  1.09

Nlocal:             62 ave          62 max          62 min
Histogram: 1 0 0 0 0 0 0 0 0 0
Nghost:            820 ave         820 max         820 min
Histogram: 1 0 0 0 0 0 0 0 0 0
Neighs:          18039 ave       18039 max       18039 min
Histogram: 1 0 0 0 0 0 0 0 0 0

Total # of neighbors = 18039
Ave neighs/atom = 290.95161
Neighbor list builds = 0
Dangerous builds = 0

# Minimize the with fire
  unfix           frb
  min_style       fire
  minimize        0.0 2.306e-2 10000 10000
  Parameters for fire:
    dmax  delaystep dtgrow dtshrink alpha0 alphashrink tmax tmin   integrator   halfstepback   abcfire  
     0.1     20      1.1     0.5     0.25     0.99      10  0.02 eulerimplicit      yes          no     
Per MPI rank memory allocation (min/avg/max) = 19.54 | 19.54 | 19.54 Mbytes
   Step          Temp          PotEng         Press            Lx             Ly             Xy      
     11760                     0   -12113.02734584633   0.1562274763536817    9.961113773284197    8.626576350433922    4.980560841804279
     11761  6.374547130062599e-15   -12113.02734577527   0.1562259413340663    9.961113773284197    8.626576350433922    4.980560841804279
Loop time of 0.0111435 on 1 procs for 1 steps with 62 atoms

97.2% CPU use with 1 MPI tasks x no OpenMP threads

Minimization stats:
  Stopping criterion = force tolerance
  Energy initial, next-to-last, final = 
     -12113.0273458463  -12113.0273458463  -12113.0273457753
  Force two-norm initial, final = 0.00815766 0.0081576344
  Force max component initial, final = 0.0013776909 0.0013776882
  Final line search alpha, max atom move = 0 0
  Iterations, force evaluations = 1 2

MPI task timing breakdown:
Section |  min time  |  avg time  |  max time  |%varavg| %total
---------------------------------------------------------------
Pair    | 0.0095462  | 0.0095462  | 0.0095462  |   0.0 | 85.67
Neigh   | 0          | 0          | 0          |   0.0 |  0.00
Comm    | 1.2443e-05 | 1.2443e-05 | 1.2443e-05 |   0.0 |  0.11
Output  | 0          | 0          | 0          |   0.0 |  0.00
Modify  | 0.0011525  | 0.0011525  | 0.0011525  |   0.0 | 10.34
Other   |            | 0.0004323  |            |       |  3.88

Nlocal:             62 ave          62 max          62 min
Histogram: 1 0 0 0 0 0 0 0 0 0
Nghost:            820 ave         820 max         820 min
Histogram: 1 0 0 0 0 0 0 0 0 0
Neighs:          18039 ave       18039 max       18039 min
Histogram: 1 0 0 0 0 0 0 0 0 0

Total # of neighbors = 18039
Ave neighs/atom = 290.95161
Neighbor list builds = 0
Dangerous builds = 0

next nr
jump ${simname}.in loopmin
jump ReaxFF.in loopmin

# Minimize the with cg + box/relax
  fix             frb all box/relax tri 0.0 couple none
  min_style       cg
  min_modify      line quadratic
  minimize        0.0 2.306e-2 10000 10000
WARNING: Energy due to 6 extra global DOFs will be included in minimizer energies
 (src/min.cpp:225)
Per MPI rank memory allocation (min/avg/max) = 20.66 | 20.66 | 20.66 Mbytes
   Step          Temp          PotEng         Press            Lx             Ly             Xy      
     11761  6.374547130062599e-15     -12113.027345729   0.1562248924434634    9.961113773284197    8.626576350433922    4.980560841804279
     11762  6.374547130062599e-15   -12113.02734586489 -0.04537015742342168    9.961113799430978    8.626576373385197     4.98056084317293
Loop time of 0.0106573 on 1 procs for 1 steps with 62 atoms

97.5% CPU use with 1 MPI tasks x no OpenMP threads

Minimization stats:
  Stopping criterion = force tolerance
  Energy initial, next-to-last, final = 
      -12113.027345729   -12113.027345729  -12113.0273458649
  Force two-norm initial, final = 0.021129979 0.0093102806
  Force max component initial, final = 0.013852561 0.0029498899
  Final line search alpha, max atom move = 0.007218882 2.1294907e-05
  Iterations, force evaluations = 1 2

MPI task timing breakdown:
Section |  min time  |  avg time  |  max time  |%varavg| %total
---------------------------------------------------------------
Pair    | 0.0090316  | 0.0090316  | 0.0090316  |   0.0 | 84.75
Neigh   | 0          | 0          | 0          |   0.0 |  0.00
Comm    | 1.2368e-05 | 1.2368e-05 | 1.2368e-05 |   0.0 |  0.12
Output  | 0          | 0          | 0          |   0.0 |  0.00
Modify  | 0.0011991  | 0.0011991  | 0.0011991  |   0.0 | 11.25
Other   |            | 0.0004142  |            |       |  3.89

Nlocal:             62 ave          62 max          62 min
Histogram: 1 0 0 0 0 0 0 0 0 0
Nghost:            820 ave         820 max         820 min
Histogram: 1 0 0 0 0 0 0 0 0 0
Neighs:          18039 ave       18039 max       18039 min
Histogram: 1 0 0 0 0 0 0 0 0 0

Total # of neighbors = 18039
Ave neighs/atom = 290.95161
Neighbor list builds = 0
Dangerous builds = 0

# Minimize the with fire
  unfix           frb
  min_style       fire
  minimize        0.0 2.306e-2 10000 10000
  Parameters for fire:
    dmax  delaystep dtgrow dtshrink alpha0 alphashrink tmax tmin   integrator   halfstepback   abcfire  
     0.1     20      1.1     0.5     0.25     0.99      10  0.02 eulerimplicit      yes          no     
Per MPI rank memory allocation (min/avg/max) = 19.54 | 19.54 | 19.54 Mbytes
   Step          Temp          PotEng         Press            Lx             Ly             Xy      
     11762                     0   -12113.02734578883 -0.04537177415626636    9.961113799430978    8.626576373385197     4.98056084317293
     11763  6.281931702915929e-15   -12113.02734580792 -0.04537146607729492    9.961113799430978    8.626576373385197     4.98056084317293
Loop time of 0.0107567 on 1 procs for 1 steps with 62 atoms

96.4% CPU use with 1 MPI tasks x no OpenMP threads

Minimization stats:
  Stopping criterion = force tolerance
  Energy initial, next-to-last, final = 
     -12113.0273457888  -12113.0273457888  -12113.0273458079
  Force two-norm initial, final = 0.0080981816 0.0080981761
  Force max component initial, final = 0.0013643974 0.0013643991
  Final line search alpha, max atom move = 0 0
  Iterations, force evaluations = 1 2

MPI task timing breakdown:
Section |  min time  |  avg time  |  max time  |%varavg| %total
---------------------------------------------------------------
Pair    | 0.0091931  | 0.0091931  | 0.0091931  |   0.0 | 85.46
Neigh   | 0          | 0          | 0          |   0.0 |  0.00
Comm    | 1.4286e-05 | 1.4286e-05 | 1.4286e-05 |   0.0 |  0.13
Output  | 0          | 0          | 0          |   0.0 |  0.00
Modify  | 0.0010343  | 0.0010343  | 0.0010343  |   0.0 |  9.62
Other   |            | 0.000515   |            |       |  4.79

Nlocal:             62 ave          62 max          62 min
Histogram: 1 0 0 0 0 0 0 0 0 0
Nghost:            820 ave         820 max         820 min
Histogram: 1 0 0 0 0 0 0 0 0 0
Neighs:          18039 ave       18039 max       18039 min
Histogram: 1 0 0 0 0 0 0 0 0 0

Total # of neighbors = 18039
Ave neighs/atom = 290.95161
Neighbor list builds = 0
Dangerous builds = 0

next nr
jump ${simname}.in loopmin
jump ReaxFF.in loopmin

# Minimize the with cg + box/relax
  fix             frb all box/relax tri 0.0 couple none
  min_style       cg
  min_modify      line quadratic
  minimize        0.0 2.306e-2 10000 10000
Per MPI rank memory allocation (min/avg/max) = 20.66 | 20.66 | 20.66 Mbytes
   Step          Temp          PotEng         Press            Lx             Ly             Xy      
WARNING: Too many warnings: 101 vs 100. All future warnings will be suppressed (src/thermo.cpp:472)
     11763  6.281931702915929e-15   -12113.02734584815 -0.04537053525140012    9.961113799430978    8.626576373385197     4.98056084317293
     11764  6.281931702915929e-15   -12113.02734585678   0.1287728362892658      9.9611137767788    8.626576355050029    4.980560849367648
Loop time of 0.0103681 on 1 procs for 1 steps with 62 atoms

4.6% CPU use with 1 MPI tasks x no OpenMP threads

Minimization stats:
  Stopping criterion = force tolerance
  Energy initial, next-to-last, final = 
     -12113.0273458481  -12113.0273458481  -12113.0273458568
  Force two-norm initial, final = 0.0093102922 0.017957513
  Force max component initial, final = 0.0029499223 0.011457432
  Final line search alpha, max atom move = 0.033899198 0.00038839776
  Iterations, force evaluations = 1 2

MPI task timing breakdown:
Section |  min time  |  avg time  |  max time  |%varavg| %total
---------------------------------------------------------------
Pair    | 0.0087048  | 0.0087048  | 0.0087048  |   0.0 | 83.96
Neigh   | 0          | 0          | 0          |   0.0 |  0.00
Comm    | 1.1463e-05 | 1.1463e-05 | 1.1463e-05 |   0.0 |  0.11
Output  | 0          | 0          | 0          |   0.0 |  0.00
Modify  | 0.001144   | 0.001144   | 0.001144   |   0.0 | 11.03
Other   |            | 0.0005079  |            |       |  4.90

Nlocal:             62 ave          62 max          62 min
Histogram: 1 0 0 0 0 0 0 0 0 0
Nghost:            820 ave         820 max         820 min
Histogram: 1 0 0 0 0 0 0 0 0 0
Neighs:          18039 ave       18039 max       18039 min
Histogram: 1 0 0 0 0 0 0 0 0 0

Total # of neighbors = 18039
Ave neighs/atom = 290.95161
Neighbor list builds = 0
Dangerous builds = 0

# Minimize the with fire
  unfix           frb
  min_style       fire
  minimize        0.0 2.306e-2 10000 10000
  Parameters for fire:
    dmax  delaystep dtgrow dtshrink alpha0 alphashrink tmax tmin   integrator   halfstepback   abcfire  
     0.1     20      1.1     0.5     0.25     0.99      10  0.02 eulerimplicit      yes          no     
Per MPI rank memory allocation (min/avg/max) = 19.54 | 19.54 | 19.54 Mbytes
   Step          Temp          PotEng         Press            Lx             Ly             Xy      
     11764                     0   -12113.02734586215   0.1287729192119234      9.9611137767788    8.626576355050029    4.980560849367648
     11765  6.124520973680492e-15    -12113.0273458475   0.1287727030371463      9.9611137767788    8.626576355050029    4.980560849367648
Loop time of 0.0104424 on 1 procs for 1 steps with 62 atoms

97.1% CPU use with 1 MPI tasks x no OpenMP threads

Minimization stats:
  Stopping criterion = force tolerance
  Energy initial, next-to-last, final = 
     -12113.0273458622  -12113.0273458622  -12113.0273458475
  Force two-norm initial, final = 0.0079960641 0.0079960596
  Force max component initial, final = 0.0013403669 0.0013403662
  Final line search alpha, max atom move = 0 0
  Iterations, force evaluations = 1 2

MPI task timing breakdown:
Section |  min time  |  avg time  |  max time  |%varavg| %total
---------------------------------------------------------------
Pair    | 0.0089035  | 0.0089035  | 0.0089035  |   0.0 | 85.26
Neigh   | 0          | 0          | 0          |   0.0 |  0.00
Comm    | 1.2743e-05 | 1.2743e-05 | 1.2743e-05 |   0.0 |  0.12
Output  | 0          | 0          | 0          |   0.0 |  0.00
Modify  | 0.0010942  | 0.0010942  | 0.0010942  |   0.0 | 10.48
Other   |            | 0.0004321  |            |       |  4.14

Nlocal:             62 ave          62 max          62 min
Histogram: 1 0 0 0 0 0 0 0 0 0
Nghost:            820 ave         820 max         820 min
Histogram: 1 0 0 0 0 0 0 0 0 0
Neighs:          18039 ave       18039 max       18039 min
Histogram: 1 0 0 0 0 0 0 0 0 0

Total # of neighbors = 18039
Ave neighs/atom = 290.95161
Neighbor list builds = 0
Dangerous builds = 0

next nr
jump ${simname}.in loopmin
jump ReaxFF.in loopmin

variable        energy equal pe
fix             output all ave/time 1 1 1 v_energy file ${simname}_energy.data
fix             output all ave/time 1 1 1 v_energy file ReaxFF_energy.data
dump            dump1 all custom 1 ${simname}.lammpstrj id type x y z fx fy fz
dump            dump1 all custom 1 ReaxFF.lammpstrj id type x y z fx fy fz
dump_modify     dump1 sort id

fix             nve all nve
run             0
Per MPI rank memory allocation (min/avg/max) = 19.54 | 19.54 | 19.54 Mbytes
   Step          Temp          PotEng         Press            Lx             Ly             Xy      
     11765  6.124520973680492e-15     -12113.027345816   0.1287718534754489      9.9611137767788    8.626576355050029    4.980560849367648
Loop time of 7.18e-07 on 1 procs for 0 steps with 62 atoms

557.1% CPU use with 1 MPI tasks x no OpenMP threads

MPI task timing breakdown:
Section |  min time  |  avg time  |  max time  |%varavg| %total
---------------------------------------------------------------
Pair    | 0          | 0          | 0          |   0.0 |  0.00
Neigh   | 0          | 0          | 0          |   0.0 |  0.00
Comm    | 0          | 0          | 0          |   0.0 |  0.00
Output  | 0          | 0          | 0          |   0.0 |  0.00
Modify  | 0          | 0          | 0          |   0.0 |  0.00
Other   |            | 7.18e-07   |            |       |100.00

Nlocal:             62 ave          62 max          62 min
Histogram: 1 0 0 0 0 0 0 0 0 0
Nghost:            820 ave         820 max         820 min
Histogram: 1 0 0 0 0 0 0 0 0 0
Neighs:          18039 ave       18039 max       18039 min
Histogram: 1 0 0 0 0 0 0 0 0 0

Total # of neighbors = 18039
Ave neighs/atom = 290.95161
Neighbor list builds = 0
Dangerous builds = 0
Total wall time: 0:00:53
