ITEM: TIMESTEP
11765
ITEM: NUMBER OF ATOMS
62
ITEM: BOX BOUNDS xy xz yz pp pp pp
-8.2820365889412176e-02 1.4859319370200538e+01 4.9805608493676479e+00
-7.1672938475101922e-02 8.5552888121311508e+00 4.6510994350184296e-04
2.2792197407266381e+00 4.7672532592872955e+01 3.8539555622318125e-04
ITEM: ATOMS id type x y z fx fy fz
1 1 -0.078067 -0.0691172 23.0023 0.000191762 0.000569151 -0.000999206
2 1 1.17114 0.652111 22.9784 0.000717542 -0.000437431 -0.00092984
3 1 -0.0780658 -0.0691167 19.6865 0.000185255 0.000563998 0.000987055
4 1 1.17114 0.652111 19.7104 0.000711203 -0.00044639 0.000910392
5 1 11.1033 2.09534 22.9469 0.000197967 4.27363e-05 -0.000529426
6 1 2.40655 2.79191 22.9784 0.000554103 3.55996e-05 0.000114143
7 1 11.1033 2.09534 19.742 0.000193291 4.39802e-05 0.000508768
8 1 2.40655 2.79191 19.7104 0.0005723 3.15483e-05 -0.000119314
9 1 2.40655 4.23437 23.0023 -0.000138698 -0.000666077 0.000132248
10 1 3.66175 4.95012 22.9433 0.00124772 -0.000999423 1.10143e-05
11 1 2.40656 4.23437 19.6866 -0.000134044 -0.000669566 -0.000126094
12 1 3.66175 4.95012 19.7456 0.00125179 -0.00100239 1.03306e-05
13 1 3.65574 6.39521 22.9843 -0.000507615 0.0003769 -0.000416061
14 1 4.91023 7.11256 22.9433 0.00130537 -0.000860406 -0.000787381
15 1 3.65574 6.39521 19.7045 -0.000506128 0.000374331 0.000431201
16 1 4.91023 7.11256 19.7455 0.0012995 -0.00086255 0.000782709
17 1 7.38711 8.53203 22.9468 -0.000577124 -0.0009001 -0.000287951
18 1 3.64197 0.652111 22.9784 -0.000142205 -0.000109637 0.000584752
19 1 7.38711 8.53203 19.742 -0.000577942 -0.000903296 0.000272098
20 1 3.64197 0.652112 19.7104 -0.000140836 -9.47033e-05 -0.000586893
21 1 3.67089 2.09534 22.9468 7.67413e-05 0.000847897 0.000722914
22 1 4.91483 2.81353 22.7726 -0.00106005 0.00106228 0.00110521
23 1 3.67089 2.09534 19.742 7.10468e-05 0.000844086 -0.000717119
24 1 4.91483 2.81353 19.9162 -0.00107368 0.00105666 -0.00108553
25 1 4.89387 4.24909 22.6717 0.000128765 7.49232e-05 0.000405372
26 1 5.92121 5.08725 22.0602 -0.000504362 0.000423398 0.000588732
27 1 4.89387 4.24909 20.0171 0.000120993 7.83788e-05 -0.000383323
28 1 5.92121 5.08725 20.6286 -0.000516984 0.000425664 -0.000599525
29 1 6.13341 6.39602 22.6717 0.000311516 -0.00044561 -0.000396271
30 1 7.38711 7.09565 22.7727 -0.00132737 0.000631447 0.000218817
31 1 6.13341 6.39602 20.0171 0.000304889 -0.00045714 0.000384268
32 1 7.38711 7.09565 19.9162 -0.00134037 0.000626369 -0.000235312
33 1 4.89117 -0.0691171 23.0022 -0.000237853 0.000406435 0.000681579
34 1 6.13862 0.660035 22.9433 0.000645859 -0.000691081 0.000657576
35 1 4.89117 -0.0691166 19.6866 -0.000240693 0.000411979 -0.000671412
36 1 6.13863 0.660036 19.7456 0.000644352 -0.000686065 -0.000634491
37 1 6.14758 2.07761 22.6717 -0.00052365 0.000230484 0.00117979
38 1 7.38712 2.54822 22.0603 0.000768579 0.000625635 4.52135e-05
39 1 6.14758 2.07761 20.0171 -0.000528135 0.000222677 -0.00115744
40 1 7.38712 2.54822 20.6286 0.000764213 0.00061947 -5.18059e-05
41 1 8.85301 5.08724 22.0603 7.42854e-05 -0.000701474 -0.000817862
42 1 8.85301 5.08724 20.6286 5.23863e-05 -0.000714058 0.00083109
43 1 8.64081 6.39602 22.6717 -0.000749481 3.19076e-06 0.000552664
44 1 9.86399 7.11256 22.9433 0.000530012 -0.000176032 0.000436204
45 1 8.64082 6.39602 20.0171 -0.000763357 6.85152e-06 -0.00056303
46 1 9.86399 7.11256 19.7456 0.000526639 -0.000172054 -0.000432313
47 1 7.38711 -0.0677112 22.9843 0.000431349 -0.000348358 -0.000380588
48 1 8.63559 0.660036 22.9433 -0.000917306 -0.000222367 -0.000658534
49 1 7.38711 -0.0677107 19.7045 0.000430529 -0.0003479 0.00039516
50 1 8.6356 0.660037 19.7455 -0.000921191 -0.000228506 0.000649929
51 1 8.62665 2.0776 22.6717 -0.000627022 -0.000283168 -0.000133919
52 1 9.85939 2.81353 22.7727 0.000329377 -6.87349e-05 -0.000180625
53 1 8.62665 2.0776 20.0171 -0.000639357 -0.000280178 0.000115412
54 1 9.85939 2.81353 19.9162 0.000315508 -7.35488e-05 0.000156479
55 1 9.88035 4.24908 22.6717 -5.87905e-05 0.000745345 4.97875e-05
56 1 11.1125 4.95012 22.9433 -0.000324302 0.000248646 -8.71598e-05
57 1 9.88035 4.24908 20.0171 -6.589e-05 0.000732621 -6.69576e-05
58 1 11.1125 4.95012 19.7456 -0.000320724 0.000244942 8.53761e-05
59 1 11.1185 6.39521 22.9843 0.000698784 -1.27214e-05 -0.000182966
60 1 12.3677 7.11643 23.0249 -0.000446741 0.000632066 -0.000550984
61 1 11.1185 6.39521 19.7045 0.000701422 -1.19781e-05 0.000193784
62 1 12.3677 7.11643 19.6639 -0.000443158 0.000633257 0.000569267
