units           metal
atom_style      atomic
boundary        p p p
processors		  * * 1
read_data		    AA3.data
Reading data file ...
  triclinic box = (0 0 0) to (9.795473 8.4832305 49.951752) with tilt (4.8985647 -5.3998159e-06 0.0001022259)
WARNING: Triclinic box skew is large. LAMMPS will run inefficiently. (src/domain.cpp:220)
  1 by 1 by 1 MPI processor grid
  reading atoms ...
  62 atoms
  read_data CPU = 0.012 seconds
mass            1 12.011

# Define potentials
pair_style      tersoff
pair_coeff      * * BNC.tersoff C
Reading tersoff potential file BNC.tersoff with DATE: 2013-03-21


# Variable
variable        thermofrq equal 10
variable        Nloop equal 100     # number of loop to run
variable        binding equal pe


# Output
thermo          ${thermofrq}
thermo          10
thermo_style    custom step temp pe lx ly lz pxx pyy pzz fmax fnorm
thermo_modify   line one format float %20.16g
thermo_modify   flush yes norm no lost warn

# Minimize the system in loops
timestep        1.0e-3
variable        nr loop ${Nloop}
variable        nr loop 100
label           loopmin

# Minimize the with cg + box/relax
  fix             frb all box/relax tri 0.0 couple none
  min_style       cg
  min_modify      line quadratic
  minimize        0.0 1.0e-3 10000 10000
Neighbor list info ...
  update: every = 1 steps, delay = 0 steps, check = yes
  max neighbors/atom: 2000, page size: 100000
  master list distance cutoff = 4.1
  ghost atom cutoff = 4.1
  binsize = 2.05, bins = 8 5 25
  1 neighbor lists, perpetual/occasional/extra = 1 0 0
  (1) pair tersoff, perpetual
      attributes: full, newton on
      pair build: full/bin/atomonly
      stencil: full/bin/3d
      bin: standard
WARNING: Energy due to 6 extra global DOFs will be included in minimizer energies
 (src/min.cpp:225)
Per MPI rank memory allocation (min/avg/max) = 4.202 | 4.202 | 4.202 Mbytes
   Step          Temp          PotEng           Lx             Ly             Lz            Pxx            Pyy            Pzz            Fmax          Fnorm     
         0                     0   -486.4724740109509          9.795473045    8.483230478099999        49.9517523336    15739.26814599394    15755.61887975903    1966.679121042842    1.371069020141198    9.219408921059141
        10                     0   -486.5528077951494    9.805258391175574    8.491713708578091     49.9581238934804    14265.01442552061    14279.73275601154    1870.334119363861    1.366943661832932    9.197949142162665
        20                     0   -486.6253564495427     9.81504380043836    8.500196939056185    49.96483556988075    12805.15319890854    12818.32173617943    1773.883290212818    1.362680625728204    9.176899161404467
        30                     0   -486.6903534363169    9.824829236802048    8.508680169534276    49.97195970445632    11359.50502876701    11371.18968747358    1677.045293606934    1.358240008728108    9.155420839208357
        40                     0   -486.7480646790859    9.834614665530005    8.517163400012368    49.97959517338144    9927.877858122689    9938.125820906394    1579.441732300229    1.355497956397459    9.132495950657326
        50                     0   -486.7988039310985     9.84440005648503    8.525646630490462    49.98788251813409    8510.060389660977    8518.897803240146    1480.541799410507     1.35450146578716    9.106819595704188
        60                     0   -486.8429598946972    9.854185390803654    8.534129860968553    49.99703186867479    7105.810347327129    7113.239762238469    1379.560143521692    1.352482834741119    9.076603244707183
        70                     0   -486.8810489860638    9.863970675062426    8.542613091446645    50.00737951897207    5714.831605892229    5720.829304769346    1275.249938447843    1.349114450275266    9.039174689988673
        80                     0   -486.9138328953836    9.873755974555872    8.551096321924739    50.01951841318167    4336.723428275227    4341.237255716643      1165.4255647511    1.343818406400189    8.990050435720166
        90                     0   -486.9426395525892    9.883541505487944     8.55957955240283    50.03466382020213    2970.843556135724    2973.793706754934    1045.624570169658     1.33540948182483    8.920309307943825
       100                     0   -486.9705038470108     9.89329231313989    8.568031868525562      50.055996060673    1620.711766685607    1622.012749802389    904.4203673222348    1.320751956226154    8.806599778870972
       110                     0   -486.9976145026417    9.900413678187713    8.574202839225315     50.0836080907297    638.7881118635675    638.8790866315005    757.8529814393762    1.298040672178389    8.635010865129949
       120                     0   -487.0330076413077    9.904173031738653     8.57745638572055    50.12253994038628     115.755921451537    115.3520963239764    591.2580185569922    1.263501643884742    8.350386816142176
       130                     0   -487.0847466011903    9.904921682665004    8.578097988313637    50.17249169271989    1.556186583375252    1.190404494156699    402.0754205714733    1.217337645304261    7.895050669079219
       140                     0   -487.1558562467839    9.904902951579057    8.578072638884692    50.22244344505349   0.3947889338938378  0.08701804239787554    214.3189717947919    1.146318528105599    7.244067028925388
       150                     0   -487.3251417169668    9.905253229029455    8.578351836554775     50.2723951973871     5.17828713514921     4.96553068770079    11.72764972928159   0.9388523005364114    5.566321572660672
       160                     0   -487.5493921730682    9.907030396402673     8.57985179906504    50.29963335494716   -64.78821016675909   -64.79667830687458    37.54791952507686    0.556121379170303    2.887139648271309
       170                     0   -487.5904971443819    9.907083788744028    8.579891451719856    50.33562192412136   -47.61101417701295   -47.67616961301871    47.24954505318688   0.5004701035806383    2.355486595588228
       180                     0    -487.620183499279    9.907186496023201    8.579975468642283    50.37879464919249   -52.31135264352602   -52.39846253224993    50.81348900024095   0.4542309113656743    1.983481529015895
       190                     0   -487.6420533448483    9.907216730680775    8.579997909362616     50.4240886088112   -57.54105738768173   -57.64207111907243    51.18716942144158   0.4157503405353323    1.725895928378958
       200                     0   -487.6591752229887    9.907220293019895    8.579997909362616    50.46963594921858   -65.21574707158662    -65.3293977478495    49.62875755181518   0.3824601460976979     1.53700572047565
       210                     0   -487.6733567030605    9.907159587961514    8.579942510248872    50.51504880717566   -67.90260907352952   -68.01855633163852    47.30451230226141   0.3523216653556857    1.388285989853572
       220                     0   -487.6854215804921    9.907081653021907    8.579872359089537    50.55973623246393   -70.41479611334556    -70.5323374448969    44.40559180934339   0.3246175045011784    1.265425817339602
       230                     0   -487.6958858949118    9.906979733504908    8.579781500167051    50.60340340323518   -70.93772648980631   -71.05350574820308    41.31857247705371   0.2987922592029172    1.159724436893808
       240                     0   -487.7050964825506    9.906891323635058    8.579702391989988    50.64600552268987   -73.96547182858511   -74.08267338134409    37.96930697363477   0.2745306200988273    1.065923137924681
       250                     0   -487.7132800836299    9.906777231381621    8.579601010263957    50.68749392255238   -73.98931664123663   -74.10336639897871    34.78035515664753   0.2558728822270201    0.980937423342865
       260                     0   -487.7206145374836    9.906689846212037    8.579522763741204    50.72800996706194   -77.92297337453465    -78.0390601971533    31.43162587733337   0.2484365751276653   0.9028456891621356
       270                     0   -487.7272368615392    9.906559384171461    8.579407114061659     50.7676645284187   -76.53967339559631   -76.65047013387151    28.48292921082605   0.2398631764784597   0.8303586339943753
       280                     0    -487.733248631242     9.90646518737111    8.579322851808035    50.80664631647273   -80.56433278339954   -80.67691322633559    25.35645115393217   0.2304686400588258   0.7628614557636051
       290                     0   -487.7387507536882    9.906312232999406    8.579187556856795     50.8451568621278   -77.67506575385599   -77.78056016021995    22.75804751311026   0.2205380387467304   0.6996878784510466
       300                     0   -487.7438051705989    9.906196855413205    8.579084756217121     50.8833785577113    -81.0221688098699   -81.12859077249243    19.95524639293771   0.2101496852955473     0.64082924376216
       310                     0   -487.7485013557617    9.906024001072822    8.578932001645999    50.92163094690707   -78.57288273112324   -78.67330259700475    17.62437380387694   0.1993922366151976   0.5858568021168138
       320                     0   -487.7528957267193    9.905842621247487    8.578771726086863    50.96016689942557   -77.47509144603454   -77.57153892341645    15.36076481696454   0.1882366229555323   0.5348890631883728
       330                     0   -487.7570702714856    9.905623618926123    8.578578668866598    50.99945052861858   -74.85009871299624   -74.94126025363043    13.31532732465701   0.1766115976225712   0.4877486841487264
       340                     0   -487.7611113238094    9.905356708004073    8.578343872162247    51.04008172450185   -70.67256128077791   -70.75730440740406    11.47336986208446   0.1643804906078551   0.4443012847984418
       350                     0    -487.765129155021    9.905023598120259     8.57805141479318    51.08297223401986   -64.51298004743924   -64.58981945241516    9.833973152154115   0.1513228325572114   0.4042482708329502
       360                     0   -487.7692655362247    9.904602434196391    8.577682253778487    51.12945044143955   -56.52470777578358   -56.59214642953378    8.354732759738271   0.1371246838941449   0.3670945820528734
       370                     0   -487.7734978251588    9.904066009398882    8.577212857091629    51.17883883346808   -44.70042367819146    -44.7492373300739    7.205744695509845   0.1221781938000046   0.3336005771776547
       380                     0   -487.7773409405575    9.903253802003034     8.57650486241449    51.22414580136837  -0.6820596763709946  -0.6944283246645904    8.291156121015934    0.109003149088726   0.3070669211546171
       390                     0   -487.7799375515425    9.902117408666346    8.575613222180809    51.25444498293456    100.7404012265999    86.84871151902121     12.9412774732843   0.1009333740247186   0.2917670125742023
       400                     0   -487.7823560157956      9.9026841338823    8.576712811642286    51.28301565794366   -22.48399443779435   -125.1877693207124    2.291515889431091  0.09215947658937756   0.2749008682225461
       410                     0   -487.7843122927516      9.9028106899418    8.576258856836741    51.30574291645748   -76.78161381949707   -97.90403013721746   0.8527940253989016  0.08599953666831606   0.2620749160319217
       420                     0   -487.7866233390162    9.901522902390402    8.576070290798507    51.33235163753245     40.7694989842925   -115.1865912557599    3.103242918034115  0.07932629170170802   0.2489192392979062
       430                     0    -487.787741829538    9.901769600486686    8.575330547478961    51.34482344197604   -12.21055997824392   -29.97118760283628    3.737308227940939  0.07623953196154992   0.2408498858281271
       440                     0   -487.7891954766216    9.901248630895305    8.574699305409833    51.36126549884998    24.70911430511492    32.85535721845533     6.28324153986824  0.07237920126728503   0.2326366310441398
       450                     0    -487.790622600653    9.901656882630666    8.574693002269134    51.37745073488912   -59.47967977689797   0.6193596906328951    2.417083742975972  0.06800250305813027   0.2223629759550569
       460                     0   -487.7928412643985    9.901149914637598    8.574580591011401    51.40247322243527   -45.08320827042778   -32.67478436831232     1.23667767301513  0.06173329320133242   0.2065980196984168
       470                     0   -487.7949462038584    9.900437619978394    8.574065547207759    51.42562523396735   -1.778092566072473    -4.42312040789505    2.908837102442049  0.05619255444717014   0.1920639389822724
       480                     0   -487.7957637477415    9.900716759479559    8.573646412506521    51.43457689829949   -55.89879249761333    37.01928894878342    2.238313965755226  0.05391903391462932   0.1860538149088055
       490                     0   -487.7961582294309    9.899716865437052    8.574163319707457    51.43877653135698     61.0686766929993   -46.26295362182957    3.158818311878007   0.0529578919838507   0.1831533224293257
       500                     0    -487.796663610851    9.901540605896612    8.572713130650889    51.44485262152751   -181.5708223282096    149.5525012809165    1.616389628900427  0.05127411803679249   0.1843692603974054
       510                     0    -487.797343476355    9.898692964964013     8.57464280839762    51.45211865883697    160.2286190606102   -144.9274241958874    2.876436748312913  0.04955068198775842     0.17935546630456
       520                     0   -487.7978232576561    9.900100592836022    8.573399176448421    51.45673270876161   -26.82981173333459    24.30333206994212    2.233132998013148  0.04830008544714104   0.1700349704310085
       530                     0   -487.7987927126806    9.899608681455263      8.5734528812451    51.46705741231917     11.4686056310226   -6.944392415276748    2.221012309366124  0.04560289333999368   0.1611514209504957
       540                     0   -487.8007827823738    9.899511102721368    8.572746480278326    51.48910365842738   -27.79891910914674    43.40606141854852    2.073004643319013  0.03967771975194545   0.1436159904660064
       550                     0    -487.801143660363    9.898980745981977    8.573243789745236    51.49287506921311    28.74404486468441   -38.39913531905364    1.231322624759182   0.0385144689296304   0.1392622563839631
       560                     0   -487.8017851382066    9.900145311623614    8.571831784892122    51.50006097455314   -134.9351093116894    147.7084254426323    1.769824763840877  0.03645761751928844    0.139435018944456
       570                     0    -487.802382927089    9.898107263112779    8.573472295078751    51.50614129146042    103.9518095931286   -105.6767127444386    1.200824299427378  0.03456200560063699   0.1303609103086134
       580                     0   -487.8026894648693    9.899639110891423    8.572013563053071    51.50925489174596   -96.05219624379149    96.75073598563253    1.212636262865383  0.03359304780718569   0.1258675233628568
       590                     0   -487.8035769948679    9.898789187272731    8.572400553163101    51.51856541287786   -15.23799572537163    15.13331645588494     1.00683495665509  0.03059982031969904   0.1128743145406395
       600                     0   -487.8040244622418    9.898471749422512    8.572485044606077    51.52340360094819    10.60790926717242   -11.01041568406153   0.9055546477688529   0.0289568884502438   0.1084647434017722
       610                     0   -487.8045513372139    9.897628024050039    8.572982529884019    51.52906744720404    98.98921078172356   -100.0701976139101    1.283650365686854  0.02690167475508431   0.1040029667746265
       620                     0   -487.8048527331815    9.898419603658587    8.572161335011531    51.53213094499836   -9.309030549338575    9.157102659572356    1.245954113901778  0.02578870831185071  0.09612181702277894
       630                     0    -487.805145151904     9.89836882880863    8.572065990047738     51.5352810237956   -12.99147055534769    12.83673816738429    1.479377884327684  0.02457376538473355  0.09234342060102452
       640                     0   -487.8054332098744    9.897875258840335    8.572368596943061    51.53673856943897    39.44350851514532   -40.18398748918825    6.824635568133502  0.02332179058271039  0.08811707393581582
       650                     0   -487.8055836793566    9.898151926877198    8.572040686877983     51.5393077478187   -1.299800999733303   0.9776282064148621    4.308137282201354  0.02263421449338043  0.08710935958575686
       660                     0   -487.8057661476213    9.898662117092393    8.571484422688583    51.54347266548985   -73.14428790582289    73.18217901382833   -2.067007349880345  0.02180450239122816  0.08459916744328229
       670                     0   -487.8059243719247    9.897915758224281    8.572048867120726    51.54521691966804    14.22243775745166   -14.26970689378635   -1.992811942905783  0.02107704050324477  0.08112426074655903
       680                     0    -487.806073651603    9.897430249198958    8.572388123655569    51.54664868126164    69.08424716834982   -69.08865374226741  -0.9759812605723535  0.02033851457089486  0.07910063152723272
       690                     0   -487.8064992470906    9.898624500429555    8.571076264754957    51.55161212155663   -100.4764253872029    99.86129714308395    2.142010935067214  0.01776894252207284  0.08644429878264484
       700                     0   -487.8068890322515    9.897643728033382    8.571714123316159     51.5554360752225    7.075648228511707    -7.31634023872068     3.09568522818636   0.0158858864887057  0.06220297549420632
       710                     0   -487.8069718243048    9.898056624063146    8.571287494334443      51.557874931683   -49.39258513467265    49.35991779781467   -1.094110582926529  0.01538255476411116  0.06018537168148631
       720                     0   -487.8070491654703    9.897541423806617    8.571681108000995    51.55863141381729    11.18788735124407   -11.25417142479366  -0.2888125222614537  0.01488824344937489  0.05831358789058211
       730                     0   -487.8071284669989    9.897304633352547    8.571830687145308    51.55948950544644    36.78017390120145   -36.84882213698511   0.2920687324082624  0.01437379014403251  0.05589556962958116
       740                     0    -487.807200673111    9.897721674665275    8.571415213621478    51.56047255301061    -19.2581631228466    19.14689669096322   0.3249130808582515  0.01388023911882169  0.05413497131573893
       750                     0   -487.8072733480025     9.89775057389633    8.571334105366336    51.56149356755355   -26.90409084362622    26.79336527611521   0.2809807784124073  0.01337470400250429  0.05189590375356016
       760                     0   -487.8073382434707     9.89729127699057    8.571678240703136    51.56244807801117    26.64442071525258   -26.70951130184754   0.2633182544578592  0.01289288614073086  0.05053556503722343
       770                     0   -487.8073941535134    9.897736757711932     8.57124228635346    51.56334723780883    -32.6752199401169    32.50419982976002   0.2489162440085955  0.01243173028990568  0.05092799213418717
       780                     0   -487.8076122330538    9.897941064743074    8.570863561783728    51.56684600685427   -72.75343995880891    72.51519726718207   0.2435137122945702  0.01059806798639895  0.04599822038353645
       790                     0   -487.8076713634904    9.897176816478366    8.571473168645003     51.5677116131284    19.07019103164354   -19.09116210801747   0.1946540351780087  0.01013863143641841  0.04033917094135982
       800                     0   -487.8077164808887    9.897143019376953     8.57145702202801    51.56846840485517    20.01563768772136   -20.05756224772059   0.1831142052574252 0.009724155806317802  0.03806153959050006
       810                     0   -487.8077528266492    9.897427066635691    8.571171819498772    51.56911773686733   -18.30797086053107    18.22905696565277   0.1743485186729229 0.009364364579924067  0.03674117100863402
       820                     0   -487.8077864629527     9.89737845296721    8.571176462839357    51.56972849953634   -14.92565425718407    14.85459919867818   0.1670264194769576 0.009023275099184547  0.03530643859405739
       830                     0   -487.8078154978766    9.897043601131664    8.571431705724914     51.5702886850826    24.41518110043017    -24.4540322455732   0.1608578590413886 0.008708234238730794  0.03450277532973849
       840                     0   -487.8078430853977    9.897131071579478    8.571322966844273    51.57082137465221     11.1102609530016   -11.16034954814386   0.1536315431514687 0.008406395814921641  0.03339174545581226
       850                     0   -487.8078677809897     9.89745129322038    8.571014566845028    51.57132155560137   -31.13498376469698     31.0621926047342   0.1467762880075454 0.008121039705280109  0.03256142355477659
       860                     0   -487.8078907533364    9.897204576130935     8.57119881571564    51.57178775403215   -2.426476030410279     2.37141398744586   0.1417247465762083 0.007853520051779639  0.03152369345274016
       870                     0   -487.8079131099782      9.8969381233959    8.571400136410322     51.5722510505324    28.74750084266385   -28.77718519283291   0.1366869979715716 0.007586136179859537  0.03031708257168071
       880                     0   -487.8079332038374    9.897199927557486    8.571146373338269    51.57267910432338    -5.90827755405481    5.855033371742561   0.1306197104586341 0.007337550675433013  0.02925075494870195
       890                     0   -487.8079537007057    9.897292285603665    8.571038122145735    51.57312236977244   -19.48051496613229    19.42133825163375   0.1250986078965417 0.007078723076056337  0.02790137529274014
       900                     0   -487.8079719591812    9.897044042896173    8.571226274249858    51.57353819460522    9.603382697056015   -9.641866264032609   0.1206979893642957 0.006834660759389488   0.0269383205275705
       910                     0   -487.8079901532762    9.896998881489699    8.571238164597556     51.5739596798355    13.28660096948542    -13.3213491711823    0.115612630595351 0.006585882252475028  0.02579223713153703
       920                     0   -487.8080062821163    9.897189566729265    8.571047416613538    51.57435615177947   -12.37866098256315     12.3290048123884   0.1103631144205934 0.006350568252977029  0.02506051713229297
       930                     0   -487.8080219110063    9.897164837920084    8.571043503475046    51.57474457606266    -11.1117685708678    11.06417649404891   0.1058528128822774 0.006118885447635336  0.02411072265303019
       940                     0   -487.8080355463044    9.896917349022853    8.571233989567741    51.57510664717962    18.09108115223296   -18.11749387476322   0.1022278425012817 0.005901922599197029  0.02360573331182493
       950                     0   -487.8080486024619    9.896986956043046    8.571151002576679    51.57545261475327    7.760623867746697   -7.794211365452496    0.097841051124437 0.005693578752243189  0.02282072099348831
       960                     0   -487.8080599461646    9.897045146770751    8.571081934494353    51.57573561378939  -0.8518865486103445   0.8150157413823735  0.09445431129138857  0.00552242425976962  0.02122328370473002
       970                     0   -487.8081737740963    9.896845046932397    8.570985297760227    51.57978088642739    4.720150222113366   -4.743641536040946  0.04309559171571322 0.003059272051019413  0.01191181005503799
       980                     0   -487.8081831003577     9.89684790141979    8.570951278929295    51.58020906218718    2.090842920867693   -2.108532197888934  0.04729993712701391 0.002763999811347617  0.01084591315868948
       990                     0   -487.8081870964205    9.896918594711229    8.570875058330499    51.58041903799023   -7.808513185615677    7.789084542208567  0.04063833716427944 0.002629521713070737  0.01042646272668826
      1000                     0   -487.8081897808138    9.896849589393753    8.570924453445619    51.58056281538342  0.05696203331264967 -0.07346696263228171  0.03792815762524974 0.002533495348106984  0.01010421311932386
      1010                     0   -487.8081921064242    9.896784353043122    8.570971785492993    51.58068765523945    7.547829249105853    -7.55929603457621  0.03806945011638914  0.00244909453425074 0.009733810869281366
      1020                     0   -487.8081941500705    9.896859545493053    8.570898288223297    51.58080391334401   -2.446996202055159    2.430188823895338  0.03663007893049816 0.002371581986759186 0.009451528503045903
      1030                     0   -487.8081962347473    9.896879441765462    8.570872370485588    51.58092397883997   -5.557238096768663    5.539215724437303  0.03533727144437605 0.002291446575239942  0.00905823545323089
      1040                     0   -487.8081981262491    9.896799283380275    8.570933333414731    51.58104018804321    3.845844206623117   -3.857908688822607  0.03432974442670348  0.00221391647724356 0.008806717367889906
      1050                     0   -487.8082000339261    9.896789862646521    8.570932885645563      51.581158968451    4.403004453456552   -4.414291698417547  0.03312157513542536 0.002134706237432671 0.008457973362088386
      1060                     0   -487.8082017226887    9.896865426690569    8.570859283398068    51.58127218762067   -5.622102254204062    5.605550276596234  0.03179030451894814 0.002059210171703019  0.00826933873390512
      1070                     0   -487.8082033726669    9.896842898825705    8.570870739418753    51.58138326657372   -3.388124474359314    3.373212287887522  0.03069901362521838 0.001985179015661143 0.007968861726749611
      1080                     0   -487.8082048174006    9.896750843478552    8.570942870716554    51.58148746513495    7.562954224987395   -7.570852983341839  0.02983837971423029 0.001915765119326895 0.007790696307422741
      1090                     0    -487.808206183011    9.896796623171072    8.570896114868503    51.58158597097669    1.333469946203908     -1.3448333468957  0.02870279340522602 0.001850126722743706 0.007525295933438673
      1100                     0   -487.8082074636692     9.89686263559814     8.57083204464692    51.58168169348801   -7.407790337583119    7.392025040584504  0.02757512507267573 0.001786347299488567 0.007240278168758412
      1110                     0   -487.8082086102801    9.896791860379555    8.570886912094309    51.58176994217523   0.9691385516602931  -0.9798287824497028   0.0268180445071824  0.00172757760675013 0.006979044397445087
      1120                     0   -487.8082097720156     9.89675367588783    8.570913342301976    51.58186132283964    5.260364949606156    -5.26812219117191  0.02594934166351416 0.001666719837018382 0.006651694701793496
      1130                     0   -487.8082107970119    9.896809106521129     8.57085919857581    51.58194643069077   -2.104452482688243    2.092791941667866  0.02493585450200042 0.001610022160699498 0.006408033272604611
      1140                     0   -487.8082118234699    9.896815479737532    8.570847349205202    51.58203382093406   -3.356010689100455    3.344022639655365  0.02401327043389383   0.0015518127127232 0.006120081554265077
      1150                     0   -487.8082127321026    9.896764123412614    8.570885822429002    51.58211629416689    2.625988533802991   -2.634175080519767  0.02326753807147356 0.001496887668253455 0.005930891587636275
      1160                     0   -487.8082180547266    9.896735947798481    8.570867407871653    51.58270624950759    3.062960105992991   -3.068774711237906   0.0167682669619695 0.001103789211317596 0.005543103215638816
      1170                     0    -487.808219270861    9.896819380796872    8.570785231727191    51.58284283407098   -8.070915490969229    8.059720240667748  0.01624281221522764 0.001012262132531916 0.004590079099922761
      1180                     0   -487.8082198530456    9.896739247192214    8.570849384481679    51.58291466753337    1.559412756380991   -1.564820459777436  0.01476479456170516 0.0009645801948334753 0.004129696482705334
      1190                     0   -487.8082203141784    9.896722225489279    8.570859710409087    51.58297520256705    3.367390214898642   -3.371487666360514  0.01435085074584055 0.0009241690280634152 0.003758566262818302
      1200                     0   -487.8082206428226    9.896761953411122    8.570821811477519    51.58302343632751   -1.845637101747007    1.838796458204806  0.01376585738063094 0.0008919242429521468 0.003589033427260113
      1210                     0   -487.8082209528033    9.896759637591591    8.570820402393279    51.58307030017015   -1.802212593579867    1.795593835251737  0.01328542909304824 0.0008606097786404976 0.003414872011822185
      1220                     0   -487.8082212161435    9.896727091261036    8.570845434380676    51.58311338827963    2.035393376983378   -2.039632299740108  0.01289981109448888 0.0008318277594620005 0.003321350619635744
      1230                     0   -487.8082214734005    9.896730853312253    8.570839073889472    51.58315599113483    1.342216254079199   -1.346686213521814  0.01244385284602442 0.0008033499944432587  0.00320060103229055
      1240                     0   -487.8082217013502    9.896761184706845    8.570809873446112    51.58319642406843   -2.656894227286707    2.650359134614226  0.01195381879602976 0.0007763128692991339 0.003129719396068161
      1250                     0    -487.808221920328    9.896744213002808    8.570821719843273    51.58323542682426   -0.742626007174503   0.7373147829730536  0.01158197117570767 0.0007502345848870995 0.003027988987845896
      1260                     0   -487.8082221235512    9.896713033348332    8.570845944684637     51.5832733072193    2.951372961769202   -2.954393637539196  0.01125380295358517 0.000724904097936574 0.002936643156855372
      1270                     0   -487.8082223105513    9.896736226924434    8.570823286487213    51.58330871872061  -0.1303624324985924    0.125718068075981  0.01082984212723509 0.000701208766550776 0.002836773155145879
      1280                     0   -487.8082224975529    9.896752280454834    8.570806748556105    51.58334493601614   -2.324925819685084    2.319217064078689  0.01041556492738797 0.0006769703876421396 0.002711273397824497
      1290                     0   -487.8082226641644    9.896726389695766    8.570826688833472    51.58337877080171   0.7298217120892629  -0.7336612254567368  0.01011724834207157 0.0006543293612161771 0.002613240673922171
      1300                     0   -487.8082228330497    9.896718690247704    8.570830790995551    51.58341386501606    1.506669870789551    -1.50991623209725 0.009765113850074295 0.0006308364963346635 0.002494399884486426
      1310                     0   -487.8082229831251    9.896737053117334     8.57081247732299    51.58344699975777  -0.9601624432228166   0.9556651212251601 0.009376813563120237 0.0006086451893402844  0.00241177664360309
      1320                     0   -487.8082231301039    9.896736921849003    8.570810166703673     51.5834801876989   -1.118293443565384    1.113850870822304  0.00902904833616308 0.0005864166052766961 0.002312820992197412
      1330                     0   -487.8082232594324    9.896716113800494    8.570825892889928    51.58351145071134    1.315184362248658   -1.318112248890052 0.008746815498120312 0.000565476547062127  0.00225472816346888
      1340                     0   -487.8082233839366    9.896717803708924    8.570822205160102    51.58354189642753   0.9440088563284125   -0.947023711169056 0.008422963998385106 0.0005450749780182562 0.002174421696930417
      1350                     0   -487.8082250085947    9.896688999025901     8.57079085623082    51.58431078921304    0.488807121235746   -0.488255327688161 -0.0002892660866363061 4.559043063223633e-05 0.0002930753777388396
      1352                     0   -487.8082250103575    9.896693474693933    8.570786980814214    51.58431078758237 -0.07032309074373404  0.07007829386565811 -0.0001152162869627155 2.947803741576438e-05 0.0001179669351740389
Loop time of 0.160033 on 1 procs for 1352 steps with 62 atoms

172.9% CPU use with 1 MPI tasks x no OpenMP threads

Minimization stats:
  Stopping criterion = force tolerance
  Energy initial, next-to-last, final = 
     -486.472474010951   -487.80822501011  -487.808225010357
  Force two-norm initial, final = 58.650588 0.0003368231
  Force max component initial, final = 40.819015 0.00019008653
  Final line search alpha, max atom move = 0.090196769 1.7145191e-05
  Iterations, force evaluations = 1352 2070

MPI task timing breakdown:
Section |  min time  |  avg time  |  max time  |%varavg| %total
---------------------------------------------------------------
Pair    | 0.089862   | 0.089862   | 0.089862   |   0.0 | 56.15
Neigh   | 5.8478e-05 | 5.8478e-05 | 5.8478e-05 |   0.0 |  0.04
Comm    | 0.00091138 | 0.00091138 | 0.00091138 |   0.0 |  0.57
Output  | 0.063312   | 0.063312   | 0.063312   |   0.0 | 39.56
Modify  | 0          | 0          | 0          |   0.0 |  0.00
Other   |            | 0.005888   |            |       |  3.68

Nlocal:             62 ave          62 max          62 min
Histogram: 1 0 0 0 0 0 0 0 0 0
Nghost:            162 ave         162 max         162 min
Histogram: 1 0 0 0 0 0 0 0 0 0
Neighs:              0 ave           0 max           0 min
Histogram: 1 0 0 0 0 0 0 0 0 0
FullNghs:         1442 ave        1442 max        1442 min
Histogram: 1 0 0 0 0 0 0 0 0 0

Total # of neighbors = 1442
Ave neighs/atom = 23.258065
Neighbor list builds = 1
Dangerous builds = 0

# Minimize the with fire
  unfix           frb
  min_style       fire
  minimize        0.0 1.0e-3 10000 10000
  Parameters for fire:
    dmax  delaystep dtgrow dtshrink alpha0 alphashrink tmax tmin   integrator   halfstepback   abcfire  
     0.1     20      1.1     0.5     0.25     0.99      10  0.02 eulerimplicit      yes          no     
Per MPI rank memory allocation (min/avg/max) = 3.078 | 3.078 | 3.078 Mbytes
   Step          Temp          PotEng           Lx             Ly             Lz            Pxx            Pyy            Pzz            Fmax          Fnorm     
      1352                     0   -487.8082250103578    9.896693474693933    8.570786980814214    51.58431078758237 -0.07032309066261598  0.07007829384484379 -0.0001152164502249884 2.947803730407594e-05 0.0001179669351847884
      1353  7.088890694081329e-10    -487.808225010369    9.896693474693933    8.570786980814214    51.58431078758237 -0.06945912998382246  0.06876456032137623 -1.310048638195733e-05 2.944264869614299e-05 0.0001173170820819393
Loop time of 0.000316534 on 1 procs for 1 steps with 62 atoms

16.4% CPU use with 1 MPI tasks x no OpenMP threads

Minimization stats:
  Stopping criterion = force tolerance
  Energy initial, next-to-last, final = 
     -487.808225010358  -487.808225010358  -487.808225010369
  Force two-norm initial, final = 0.00011796694 0.00011731708
  Force max component initial, final = 2.9478037e-05 2.9442649e-05
  Final line search alpha, max atom move = 0 0
  Iterations, force evaluations = 1 2

MPI task timing breakdown:
Section |  min time  |  avg time  |  max time  |%varavg| %total
---------------------------------------------------------------
Pair    | 0.00010488 | 0.00010488 | 0.00010488 |   0.0 | 33.13
Neigh   | 0          | 0          | 0          |   0.0 |  0.00
Comm    | 1.48e-06   | 1.48e-06   | 1.48e-06   |   0.0 |  0.47
Output  | 0          | 0          | 0          |   0.0 |  0.00
Modify  | 0          | 0          | 0          |   0.0 |  0.00
Other   |            | 0.0002102  |            |       | 66.40

Nlocal:             62 ave          62 max          62 min
Histogram: 1 0 0 0 0 0 0 0 0 0
Nghost:            162 ave         162 max         162 min
Histogram: 1 0 0 0 0 0 0 0 0 0
Neighs:              0 ave           0 max           0 min
Histogram: 1 0 0 0 0 0 0 0 0 0
FullNghs:         1404 ave        1404 max        1404 min
Histogram: 1 0 0 0 0 0 0 0 0 0

Total # of neighbors = 1404
Ave neighs/atom = 22.645161
Neighbor list builds = 0
Dangerous builds = 0

next nr
jump ${simname}.in loopmin
jump Tersoff.in loopmin

# Minimize the with cg + box/relax
  fix             frb all box/relax tri 0.0 couple none
  min_style       cg
  min_modify      line quadratic
  minimize        0.0 1.0e-3 10000 10000
WARNING: Energy due to 6 extra global DOFs will be included in minimizer energies
 (src/min.cpp:225)
Per MPI rank memory allocation (min/avg/max) = 4.203 | 4.203 | 4.203 Mbytes
   Step          Temp          PotEng           Lx             Ly             Lz            Pxx            Pyy            Pzz            Fmax          Fnorm     
      1353  7.088890694081329e-10   -487.8082250103684    9.896693474693933    8.570786980814214    51.58431078758237 -0.06945912983534694  0.06876456052431579 -1.310023986242965e-05 2.944264873244729e-05 0.0001173170821455011
      1354  7.088890694081329e-10   -487.8082250103873    9.896692689203551    8.570787654266429    51.58431078680996  0.02845566934141796 -0.02835971551126851 6.918702042265561e-05 2.942797017779775e-05 0.0001154789569893783
Loop time of 0.000327938 on 1 procs for 1 steps with 62 atoms

15.9% CPU use with 1 MPI tasks x no OpenMP threads

Minimization stats:
  Stopping criterion = force tolerance
  Energy initial, next-to-last, final = 
     -487.808225010368  -487.808225010368  -487.808225010387
  Force two-norm initial, final = 0.00033497019 0.00018705843
  Force max component initial, final = 0.00018969131 9.8070617e-05
  Final line search alpha, max atom move = 0.52717228 5.1700111e-05
  Iterations, force evaluations = 1 2

MPI task timing breakdown:
Section |  min time  |  avg time  |  max time  |%varavg| %total
---------------------------------------------------------------
Pair    | 0.00010586 | 0.00010586 | 0.00010586 |   0.0 | 32.28
Neigh   | 0          | 0          | 0          |   0.0 |  0.00
Comm    | 1.748e-06  | 1.748e-06  | 1.748e-06  |   0.0 |  0.53
Output  | 0          | 0          | 0          |   0.0 |  0.00
Modify  | 0          | 0          | 0          |   0.0 |  0.00
Other   |            | 0.0002203  |            |       | 67.18

Nlocal:             62 ave          62 max          62 min
Histogram: 1 0 0 0 0 0 0 0 0 0
Nghost:            162 ave         162 max         162 min
Histogram: 1 0 0 0 0 0 0 0 0 0
Neighs:              0 ave           0 max           0 min
Histogram: 1 0 0 0 0 0 0 0 0 0
FullNghs:         1404 ave        1404 max        1404 min
Histogram: 1 0 0 0 0 0 0 0 0 0

Total # of neighbors = 1404
Ave neighs/atom = 22.645161
Neighbor list builds = 0
Dangerous builds = 0

# Minimize the with fire
  unfix           frb
  min_style       fire
  minimize        0.0 1.0e-3 10000 10000
  Parameters for fire:
    dmax  delaystep dtgrow dtshrink alpha0 alphashrink tmax tmin   integrator   halfstepback   abcfire  
     0.1     20      1.1     0.5     0.25     0.99      10  0.02 eulerimplicit      yes          no     
Per MPI rank memory allocation (min/avg/max) = 3.078 | 3.078 | 3.078 Mbytes
   Step          Temp          PotEng           Lx             Ly             Lz            Pxx            Pyy            Pzz            Fmax          Fnorm     
      1354                     0   -487.8082250103868    9.896692689203551    8.570787654266429    51.58431078680996  0.02845566931028517 -0.02835971571631465 6.918316810308945e-05 2.942797018734566e-05 0.0001154789570126866
      1355  6.793027810178043e-10   -487.8082250103975    9.896692689203551    8.570787654266429    51.58431078680996  0.02770906197167205 -0.02805998989184101 0.0001674954294225738 2.939277210955993e-05 0.000115220237822374
Loop time of 0.000621415 on 1 procs for 1 steps with 62 atoms

20.4% CPU use with 1 MPI tasks x no OpenMP threads

Minimization stats:
  Stopping criterion = force tolerance
  Energy initial, next-to-last, final = 
     -487.808225010387  -487.808225010387  -487.808225010398
  Force two-norm initial, final = 0.00011547896 0.00011522024
  Force max component initial, final = 2.942797e-05 2.9392772e-05
  Final line search alpha, max atom move = 0 0
  Iterations, force evaluations = 1 2

MPI task timing breakdown:
Section |  min time  |  avg time  |  max time  |%varavg| %total
---------------------------------------------------------------
Pair    | 0.00021957 | 0.00021957 | 0.00021957 |   0.0 | 35.33
Neigh   | 0          | 0          | 0          |   0.0 |  0.00
Comm    | 3.045e-06  | 3.045e-06  | 3.045e-06  |   0.0 |  0.49
Output  | 0          | 0          | 0          |   0.0 |  0.00
Modify  | 0          | 0          | 0          |   0.0 |  0.00
Other   |            | 0.0003988  |            |       | 64.18

Nlocal:             62 ave          62 max          62 min
Histogram: 1 0 0 0 0 0 0 0 0 0
Nghost:            162 ave         162 max         162 min
Histogram: 1 0 0 0 0 0 0 0 0 0
Neighs:              0 ave           0 max           0 min
Histogram: 1 0 0 0 0 0 0 0 0 0
FullNghs:         1404 ave        1404 max        1404 min
Histogram: 1 0 0 0 0 0 0 0 0 0

Total # of neighbors = 1404
Ave neighs/atom = 22.645161
Neighbor list builds = 0
Dangerous builds = 0

next nr
jump ${simname}.in loopmin
jump Tersoff.in loopmin

# Minimize the with cg + box/relax
  fix             frb all box/relax tri 0.0 couple none
  min_style       cg
  min_modify      line quadratic
  minimize        0.0 1.0e-3 10000 10000
WARNING: Energy due to 6 extra global DOFs will be included in minimizer energies
 (src/min.cpp:225)
Per MPI rank memory allocation (min/avg/max) = 4.203 | 4.203 | 4.203 Mbytes
   Step          Temp          PotEng           Lx             Ly             Lz            Pxx            Pyy            Pzz            Fmax          Fnorm     
      1355  6.793027810178043e-10    -487.808225010398    9.896692689203551    8.570787654266429    51.58431078680996  0.02770906194887944 -0.02805999015722352 0.0001674955386977207 2.939277210717295e-05 0.0001152202378178578
      1356  6.793027810178043e-10   -487.8082250104068    9.896693061310216    8.570787327931324    51.58431079853371 -0.01890025826022801  0.01887159411352725 0.0002099998249761205 2.937326978391663e-05 0.0001148385914493696
Loop time of 0.00046262 on 1 procs for 1 steps with 62 atoms

16.0% CPU use with 1 MPI tasks x no OpenMP threads

Minimization stats:
  Stopping criterion = force tolerance
  Energy initial, next-to-last, final = 
     -487.808225010398  -487.808225010398  -487.808225010407
  Force two-norm initial, final = 0.00018501334 0.00014620771
  Force max component initial, final = 9.6722838e-05 5.3554442e-05
  Final line search alpha, max atom move = 1 5.3554442e-05
  Iterations, force evaluations = 1 2

MPI task timing breakdown:
Section |  min time  |  avg time  |  max time  |%varavg| %total
---------------------------------------------------------------
Pair    | 0.00015063 | 0.00015063 | 0.00015063 |   0.0 | 32.56
Neigh   | 0          | 0          | 0          |   0.0 |  0.00
Comm    | 2.425e-06  | 2.425e-06  | 2.425e-06  |   0.0 |  0.52
Output  | 0          | 0          | 0          |   0.0 |  0.00
Modify  | 0          | 0          | 0          |   0.0 |  0.00
Other   |            | 0.0003096  |            |       | 66.92

Nlocal:             62 ave          62 max          62 min
Histogram: 1 0 0 0 0 0 0 0 0 0
Nghost:            162 ave         162 max         162 min
Histogram: 1 0 0 0 0 0 0 0 0 0
Neighs:              0 ave           0 max           0 min
Histogram: 1 0 0 0 0 0 0 0 0 0
FullNghs:         1404 ave        1404 max        1404 min
Histogram: 1 0 0 0 0 0 0 0 0 0

Total # of neighbors = 1404
Ave neighs/atom = 22.645161
Neighbor list builds = 0
Dangerous builds = 0

# Minimize the with fire
  unfix           frb
  min_style       fire
  minimize        0.0 1.0e-3 10000 10000
  Parameters for fire:
    dmax  delaystep dtgrow dtshrink alpha0 alphashrink tmax tmin   integrator   halfstepback   abcfire  
     0.1     20      1.1     0.5     0.25     0.99      10  0.02 eulerimplicit      yes          no     
Per MPI rank memory allocation (min/avg/max) = 3.078 | 3.078 | 3.078 Mbytes
   Step          Temp          PotEng           Lx             Ly             Lz            Pxx            Pyy            Pzz            Fmax          Fnorm     
      1356                     0   -487.8082250104065    9.896693061310216    8.570787327931324    51.58431079853371 -0.01890025820819861   0.0188715943035511 0.0002099959303329069 2.937326978835753e-05 0.0001148385914428327
      1357  6.717897932880021e-10   -487.8082250104173    9.896693061310216    8.570787327931324    51.58431079853371 -0.01886785610150083  0.01839525869389037 0.0003049601750857872 2.933826429457609e-05 0.000114652825033597
Loop time of 0.000416653 on 1 procs for 1 steps with 62 atoms

13.9% CPU use with 1 MPI tasks x no OpenMP threads

Minimization stats:
  Stopping criterion = force tolerance
  Energy initial, next-to-last, final = 
     -487.808225010407  -487.808225010407  -487.808225010417
  Force two-norm initial, final = 0.00011483859 0.00011465283
  Force max component initial, final = 2.937327e-05 2.9338264e-05
  Final line search alpha, max atom move = 0 0
  Iterations, force evaluations = 1 2

MPI task timing breakdown:
Section |  min time  |  avg time  |  max time  |%varavg| %total
---------------------------------------------------------------
Pair    | 0.00011552 | 0.00011552 | 0.00011552 |   0.0 | 27.73
Neigh   | 0          | 0          | 0          |   0.0 |  0.00
Comm    | 1.702e-06  | 1.702e-06  | 1.702e-06  |   0.0 |  0.41
Output  | 0          | 0          | 0          |   0.0 |  0.00
Modify  | 0          | 0          | 0          |   0.0 |  0.00
Other   |            | 0.0002994  |            |       | 71.87

Nlocal:             62 ave          62 max          62 min
Histogram: 1 0 0 0 0 0 0 0 0 0
Nghost:            162 ave         162 max         162 min
Histogram: 1 0 0 0 0 0 0 0 0 0
Neighs:              0 ave           0 max           0 min
Histogram: 1 0 0 0 0 0 0 0 0 0
FullNghs:         1404 ave        1404 max        1404 min
Histogram: 1 0 0 0 0 0 0 0 0 0

Total # of neighbors = 1404
Ave neighs/atom = 22.645161
Neighbor list builds = 0
Dangerous builds = 0

next nr
jump ${simname}.in loopmin
jump Tersoff.in loopmin

# Minimize the with cg + box/relax
  fix             frb all box/relax tri 0.0 couple none
  min_style       cg
  min_modify      line quadratic
  minimize        0.0 1.0e-3 10000 10000
WARNING: Energy due to 6 extra global DOFs will be included in minimizer energies
 (src/min.cpp:225)
Per MPI rank memory allocation (min/avg/max) = 4.203 | 4.203 | 4.203 Mbytes
   Step          Temp          PotEng           Lx             Ly             Lz            Pxx            Pyy            Pzz            Fmax          Fnorm     
      1357  6.717897932880021e-10   -487.8082250104175    9.896693061310216    8.570787327931324    51.58431079853371 -0.01886785602013448  0.01839525890853798 0.0003049602303738079 2.933826431161801e-05 0.0001146528250294931
      1358  6.717897932880021e-10    -487.808225010425    9.896692661665565    8.570787665364648    51.58431083220167  0.03075140201112039 -0.03039875120337309 0.0003347878815908579 2.930887148133721e-05 0.0001149522176325194
Loop time of 0.000330547 on 1 procs for 1 steps with 62 atoms

16.0% CPU use with 1 MPI tasks x no OpenMP threads

Minimization stats:
  Stopping criterion = force tolerance
  Energy initial, next-to-last, final = 
     -487.808225010418  -487.808225010418  -487.808225010425
  Force two-norm initial, final = 0.00014517684 0.00018570916
  Force max component initial, final = 5.2454628e-05 8.5604517e-05
  Final line search alpha, max atom move = 1 8.5604517e-05
  Iterations, force evaluations = 1 2

MPI task timing breakdown:
Section |  min time  |  avg time  |  max time  |%varavg| %total
---------------------------------------------------------------
Pair    | 0.00010641 | 0.00010641 | 0.00010641 |   0.0 | 32.19
Neigh   | 0          | 0          | 0          |   0.0 |  0.00
Comm    | 2.001e-06  | 2.001e-06  | 2.001e-06  |   0.0 |  0.61
Output  | 0          | 0          | 0          |   0.0 |  0.00
Modify  | 0          | 0          | 0          |   0.0 |  0.00
Other   |            | 0.0002221  |            |       | 67.20

Nlocal:             62 ave          62 max          62 min
Histogram: 1 0 0 0 0 0 0 0 0 0
Nghost:            162 ave         162 max         162 min
Histogram: 1 0 0 0 0 0 0 0 0 0
Neighs:              0 ave           0 max           0 min
Histogram: 1 0 0 0 0 0 0 0 0 0
FullNghs:         1404 ave        1404 max        1404 min
Histogram: 1 0 0 0 0 0 0 0 0 0

Total # of neighbors = 1404
Ave neighs/atom = 22.645161
Neighbor list builds = 0
Dangerous builds = 0

# Minimize the with fire
  unfix           frb
  min_style       fire
  minimize        0.0 1.0e-3 10000 10000
  Parameters for fire:
    dmax  delaystep dtgrow dtshrink alpha0 alphashrink tmax tmin   integrator   halfstepback   abcfire  
     0.1     20      1.1     0.5     0.25     0.99      10  0.02 eulerimplicit      yes          no     
Per MPI rank memory allocation (min/avg/max) = 3.078 | 3.078 | 3.078 Mbytes
   Step          Temp          PotEng           Lx             Ly             Lz            Pxx            Pyy            Pzz            Fmax          Fnorm     
      1358                     0   -487.8082250104252    9.896692661665565    8.570787665364648    51.58431083220167   0.0307514017812404 -0.03039875175214187 0.0003347843242878152 2.930887142932326e-05 0.000114952217625116
      1359  6.731198455961709e-10   -487.8082250104352    9.896692661665565    8.570787665364648    51.58431083220167  0.03000103103576462   -0.030090803028196 0.0004277892417038132 2.927408574410206e-05 0.0001147064234261537
Loop time of 0.000340478 on 1 procs for 1 steps with 62 atoms

15.3% CPU use with 1 MPI tasks x no OpenMP threads

Minimization stats:
  Stopping criterion = force tolerance
  Energy initial, next-to-last, final = 
     -487.808225010425  -487.808225010425  -487.808225010435
  Force two-norm initial, final = 0.00011495222 0.00011470642
  Force max component initial, final = 2.9308871e-05 2.9274086e-05
  Final line search alpha, max atom move = 0 0
  Iterations, force evaluations = 1 2

MPI task timing breakdown:
Section |  min time  |  avg time  |  max time  |%varavg| %total
---------------------------------------------------------------
Pair    | 0.00010996 | 0.00010996 | 0.00010996 |   0.0 | 32.30
Neigh   | 0          | 0          | 0          |   0.0 |  0.00
Comm    | 1.746e-06  | 1.746e-06  | 1.746e-06  |   0.0 |  0.51
Output  | 0          | 0          | 0          |   0.0 |  0.00
Modify  | 0          | 0          | 0          |   0.0 |  0.00
Other   |            | 0.0002288  |            |       | 67.19

Nlocal:             62 ave          62 max          62 min
Histogram: 1 0 0 0 0 0 0 0 0 0
Nghost:            162 ave         162 max         162 min
Histogram: 1 0 0 0 0 0 0 0 0 0
Neighs:              0 ave           0 max           0 min
Histogram: 1 0 0 0 0 0 0 0 0 0
FullNghs:         1404 ave        1404 max        1404 min
Histogram: 1 0 0 0 0 0 0 0 0 0

Total # of neighbors = 1404
Ave neighs/atom = 22.645161
Neighbor list builds = 0
Dangerous builds = 0

next nr
jump ${simname}.in loopmin
jump Tersoff.in loopmin

# Minimize the with cg + box/relax
  fix             frb all box/relax tri 0.0 couple none
  min_style       cg
  min_modify      line quadratic
  minimize        0.0 1.0e-3 10000 10000
WARNING: Energy due to 6 extra global DOFs will be included in minimizer energies
 (src/min.cpp:225)
Per MPI rank memory allocation (min/avg/max) = 4.203 | 4.203 | 4.203 Mbytes
   Step          Temp          PotEng           Lx             Ly             Lz            Pxx            Pyy            Pzz            Fmax          Fnorm     
      1359  6.731198455961709e-10   -487.8082250104358    9.896692661665565    8.570787665364648    51.58431083220167  0.03000103119745438 -0.03009080315958636 0.0004277891590970057 2.927408575464918e-05 0.0001147064234458864
      1360  6.731198455961709e-10   -487.8082250104444     9.89669305435759    8.570787324265739    51.58431086138732 -0.01917729981592508  0.01893458744888601 0.0004028874018275414 2.925368532324946e-05 0.0001143845246481947
Loop time of 0.000268327 on 1 procs for 1 steps with 62 atoms

20.1% CPU use with 1 MPI tasks x no OpenMP threads

Minimization stats:
  Stopping criterion = force tolerance
  Energy initial, next-to-last, final = 
     -487.808225010436  -487.808225010436  -487.808225010444
  Force two-norm initial, final = 0.00018372469 0.0001456301
  Force max component initial, final = 8.4438429e-05 5.2372769e-05
  Final line search alpha, max atom move = 1 5.2372769e-05
  Iterations, force evaluations = 1 2

MPI task timing breakdown:
Section |  min time  |  avg time  |  max time  |%varavg| %total
---------------------------------------------------------------
Pair    | 0.00010621 | 0.00010621 | 0.00010621 |   0.0 | 39.58
Neigh   | 0          | 0          | 0          |   0.0 |  0.00
Comm    | 1.621e-06  | 1.621e-06  | 1.621e-06  |   0.0 |  0.60
Output  | 0          | 0          | 0          |   0.0 |  0.00
Modify  | 0          | 0          | 0          |   0.0 |  0.00
Other   |            | 0.0001605  |            |       | 59.81

Nlocal:             62 ave          62 max          62 min
Histogram: 1 0 0 0 0 0 0 0 0 0
Nghost:            162 ave         162 max         162 min
Histogram: 1 0 0 0 0 0 0 0 0 0
Neighs:              0 ave           0 max           0 min
Histogram: 1 0 0 0 0 0 0 0 0 0
FullNghs:         1404 ave        1404 max        1404 min
Histogram: 1 0 0 0 0 0 0 0 0 0

Total # of neighbors = 1404
Ave neighs/atom = 22.645161
Neighbor list builds = 0
Dangerous builds = 0

# Minimize the with fire
  unfix           frb
  min_style       fire
  minimize        0.0 1.0e-3 10000 10000
  Parameters for fire:
    dmax  delaystep dtgrow dtshrink alpha0 alphashrink tmax tmin   integrator   halfstepback   abcfire  
     0.1     20      1.1     0.5     0.25     0.99      10  0.02 eulerimplicit      yes          no     
Per MPI rank memory allocation (min/avg/max) = 3.078 | 3.078 | 3.078 Mbytes
   Step          Temp          PotEng           Lx             Ly             Lz            Pxx            Pyy            Pzz            Fmax          Fnorm     
      1360                     0   -487.8082250104442     9.89669305435759    8.570787324265739    51.58431086138732 -0.01917730022664189  0.01893458746937579 0.0004028834762902526 2.925368534367756e-05 0.0001143845246546146
      1361  6.664878406738543e-10   -487.8082250104545     9.89669305435759    8.570787324265739    51.58431086138732 -0.01911378041104915   0.0184311033568943 0.0004937274820371859 2.921906892960902e-05 0.0001141991285537377
Loop time of 0.000284548 on 1 procs for 1 steps with 62 atoms

17.6% CPU use with 1 MPI tasks x no OpenMP threads

Minimization stats:
  Stopping criterion = force tolerance
  Energy initial, next-to-last, final = 
     -487.808225010444  -487.808225010444  -487.808225010454
  Force two-norm initial, final = 0.00011438452 0.00011419913
  Force max component initial, final = 2.9253685e-05 2.9219069e-05
  Final line search alpha, max atom move = 0 0
  Iterations, force evaluations = 1 2

MPI task timing breakdown:
Section |  min time  |  avg time  |  max time  |%varavg| %total
---------------------------------------------------------------
Pair    | 0.00010446 | 0.00010446 | 0.00010446 |   0.0 | 36.71
Neigh   | 0          | 0          | 0          |   0.0 |  0.00
Comm    | 1.449e-06  | 1.449e-06  | 1.449e-06  |   0.0 |  0.51
Output  | 0          | 0          | 0          |   0.0 |  0.00
Modify  | 0          | 0          | 0          |   0.0 |  0.00
Other   |            | 0.0001786  |            |       | 62.78

Nlocal:             62 ave          62 max          62 min
Histogram: 1 0 0 0 0 0 0 0 0 0
Nghost:            162 ave         162 max         162 min
Histogram: 1 0 0 0 0 0 0 0 0 0
Neighs:              0 ave           0 max           0 min
Histogram: 1 0 0 0 0 0 0 0 0 0
FullNghs:         1404 ave        1404 max        1404 min
Histogram: 1 0 0 0 0 0 0 0 0 0

Total # of neighbors = 1404
Ave neighs/atom = 22.645161
Neighbor list builds = 0
Dangerous builds = 0

next nr
jump ${simname}.in loopmin
jump Tersoff.in loopmin

# Minimize the with cg + box/relax
  fix             frb all box/relax tri 0.0 couple none
  min_style       cg
  min_modify      line quadratic
  minimize        0.0 1.0e-3 10000 10000
WARNING: Energy due to 6 extra global DOFs will be included in minimizer energies
 (src/min.cpp:225)
Per MPI rank memory allocation (min/avg/max) = 4.203 | 4.203 | 4.203 Mbytes
   Step          Temp          PotEng           Lx             Ly             Lz            Pxx            Pyy            Pzz            Fmax          Fnorm     
      1361  6.664878406738543e-10   -487.8082250104546     9.89669305435759    8.570787324265739    51.58431086138732 -0.01911378007660628  0.01843110360016159 0.0004937274748822656 2.921906894953752e-05 0.0001141991285512326
      1362  6.664878406738543e-10   -487.8082250104621    9.896692651167877    8.570787660967055    51.58431091567164  0.03097165060357103 -0.03028102658779405 0.0004762757039934929 2.919220990510452e-05 0.0001144664235252293
Loop time of 0.000328924 on 1 procs for 1 steps with 62 atoms

15.8% CPU use with 1 MPI tasks x no OpenMP threads

Minimization stats:
  Stopping criterion = force tolerance
  Energy initial, next-to-last, final = 
     -487.808225010455  -487.808225010455  -487.808225010462
  Force two-norm initial, final = 0.00014456837 0.00018502193
  Force max component initial, final = 5.21993e-05 8.4582879e-05
  Final line search alpha, max atom move = 1 8.4582879e-05
  Iterations, force evaluations = 1 2

MPI task timing breakdown:
Section |  min time  |  avg time  |  max time  |%varavg| %total
---------------------------------------------------------------
Pair    | 0.00010432 | 0.00010432 | 0.00010432 |   0.0 | 31.72
Neigh   | 0          | 0          | 0          |   0.0 |  0.00
Comm    | 1.332e-06  | 1.332e-06  | 1.332e-06  |   0.0 |  0.40
Output  | 0          | 0          | 0          |   0.0 |  0.00
Modify  | 0          | 0          | 0          |   0.0 |  0.00
Other   |            | 0.0002233  |            |       | 67.88

Nlocal:             62 ave          62 max          62 min
Histogram: 1 0 0 0 0 0 0 0 0 0
Nghost:            162 ave         162 max         162 min
Histogram: 1 0 0 0 0 0 0 0 0 0
Neighs:              0 ave           0 max           0 min
Histogram: 1 0 0 0 0 0 0 0 0 0
FullNghs:         1404 ave        1404 max        1404 min
Histogram: 1 0 0 0 0 0 0 0 0 0

Total # of neighbors = 1404
Ave neighs/atom = 22.645161
Neighbor list builds = 0
Dangerous builds = 0

# Minimize the with fire
  unfix           frb
  min_style       fire
  minimize        0.0 1.0e-3 10000 10000
  Parameters for fire:
    dmax  delaystep dtgrow dtshrink alpha0 alphashrink tmax tmin   integrator   halfstepback   abcfire  
     0.1     20      1.1     0.5     0.25     0.99      10  0.02 eulerimplicit      yes          no     
Per MPI rank memory allocation (min/avg/max) = 3.078 | 3.078 | 3.078 Mbytes
   Step          Temp          PotEng           Lx             Ly             Lz            Pxx            Pyy            Pzz            Fmax          Fnorm     
      1362                     0    -487.808225010462    9.896692651167877    8.570787660967055    51.58431091567164  0.03097165079179948 -0.03028102666761035 0.0004762721357016862 2.919220993718996e-05 0.0001144664235265026
      1363  6.674425879530906e-10   -487.8082250104729    9.896692651167877    8.570787660967055    51.58431091567164  0.03024349750109921 -0.02999351338534447 0.0005674389451156814 2.915778685652626e-05 0.0001142277681474341
Loop time of 0.000307763 on 1 procs for 1 steps with 62 atoms

15.9% CPU use with 1 MPI tasks x no OpenMP threads

Minimization stats:
  Stopping criterion = force tolerance
  Energy initial, next-to-last, final = 
     -487.808225010462  -487.808225010462  -487.808225010473
  Force two-norm initial, final = 0.00011446642 0.00011422777
  Force max component initial, final = 2.919221e-05 2.9157787e-05
  Final line search alpha, max atom move = 0 0
  Iterations, force evaluations = 1 2

MPI task timing breakdown:
Section |  min time  |  avg time  |  max time  |%varavg| %total
---------------------------------------------------------------
Pair    | 0.00010865 | 0.00010865 | 0.00010865 |   0.0 | 35.30
Neigh   | 0          | 0          | 0          |   0.0 |  0.00
Comm    | 1.506e-06  | 1.506e-06  | 1.506e-06  |   0.0 |  0.49
Output  | 0          | 0          | 0          |   0.0 |  0.00
Modify  | 0          | 0          | 0          |   0.0 |  0.00
Other   |            | 0.0001976  |            |       | 64.21

Nlocal:             62 ave          62 max          62 min
Histogram: 1 0 0 0 0 0 0 0 0 0
Nghost:            162 ave         162 max         162 min
Histogram: 1 0 0 0 0 0 0 0 0 0
Neighs:              0 ave           0 max           0 min
Histogram: 1 0 0 0 0 0 0 0 0 0
FullNghs:         1404 ave        1404 max        1404 min
Histogram: 1 0 0 0 0 0 0 0 0 0

Total # of neighbors = 1404
Ave neighs/atom = 22.645161
Neighbor list builds = 0
Dangerous builds = 0

next nr
jump ${simname}.in loopmin
jump Tersoff.in loopmin

# Minimize the with cg + box/relax
  fix             frb all box/relax tri 0.0 couple none
  min_style       cg
  min_modify      line quadratic
  minimize        0.0 1.0e-3 10000 10000
WARNING: Energy due to 6 extra global DOFs will be included in minimizer energies
 (src/min.cpp:225)
Per MPI rank memory allocation (min/avg/max) = 4.203 | 4.203 | 4.203 Mbytes
   Step          Temp          PotEng           Lx             Ly             Lz            Pxx            Pyy            Pzz            Fmax          Fnorm     
      1363  6.674425879530906e-10   -487.8082250104733    9.896692651167877    8.570787660967055    51.58431091567164  0.03024349766112264 -0.02999351331639706 0.000567438620542477 2.915778685946835e-05  0.00011422776814519
      1364  6.674425879530906e-10   -487.8082250104815    9.896693045823396    8.570787322010402    51.58431095426652 -0.01918508317357759  0.01869343232498387 0.0004982392069420014 2.913556463429723e-05 0.0001139403791855214
Loop time of 0.00036195 on 1 procs for 1 steps with 62 atoms

19.1% CPU use with 1 MPI tasks x no OpenMP threads

Minimization stats:
  Stopping criterion = force tolerance
  Energy initial, next-to-last, final = 
     -487.808225010473  -487.808225010473  -487.808225010482
  Force two-norm initial, final = 0.00018308817 0.00014500519
  Force max component initial, final = 8.3304034e-05 5.2394025e-05
  Final line search alpha, max atom move = 1 5.2394025e-05
  Iterations, force evaluations = 1 2

MPI task timing breakdown:
Section |  min time  |  avg time  |  max time  |%varavg| %total
---------------------------------------------------------------
Pair    | 0.00014144 | 0.00014144 | 0.00014144 |   0.0 | 39.08
Neigh   | 0          | 0          | 0          |   0.0 |  0.00
Comm    | 2.216e-06  | 2.216e-06  | 2.216e-06  |   0.0 |  0.61
Output  | 0          | 0          | 0          |   0.0 |  0.00
Modify  | 0          | 0          | 0          |   0.0 |  0.00
Other   |            | 0.0002183  |            |       | 60.31

Nlocal:             62 ave          62 max          62 min
Histogram: 1 0 0 0 0 0 0 0 0 0
Nghost:            162 ave         162 max         162 min
Histogram: 1 0 0 0 0 0 0 0 0 0
Neighs:              0 ave           0 max           0 min
Histogram: 1 0 0 0 0 0 0 0 0 0
FullNghs:         1404 ave        1404 max        1404 min
Histogram: 1 0 0 0 0 0 0 0 0 0

Total # of neighbors = 1404
Ave neighs/atom = 22.645161
Neighbor list builds = 0
Dangerous builds = 0

# Minimize the with fire
  unfix           frb
  min_style       fire
  minimize        0.0 1.0e-3 10000 10000
  Parameters for fire:
    dmax  delaystep dtgrow dtshrink alpha0 alphashrink tmax tmin   integrator   halfstepback   abcfire  
     0.1     20      1.1     0.5     0.25     0.99      10  0.02 eulerimplicit      yes          no     
Per MPI rank memory allocation (min/avg/max) = 3.078 | 3.078 | 3.078 Mbytes
   Step          Temp          PotEng           Lx             Ly             Lz            Pxx            Pyy            Pzz            Fmax          Fnorm     
      1364                     0   -487.8082250104815    9.896693045823396    8.570787322010402    51.58431095426652 -0.01918508308286321  0.01869343197261765 0.0004982352383319489 2.913556462946776e-05 0.0001139403791797096
      1365  6.613220572315516e-10    -487.808225010492    9.896693045823396    8.570787322010402    51.58431095426652 -0.01910296400709579  0.01817351077141134 0.0005874564294572737 2.910129362287961e-05 0.0001137542876220796
Loop time of 0.000283745 on 1 procs for 1 steps with 62 atoms

20.1% CPU use with 1 MPI tasks x no OpenMP threads

Minimization stats:
  Stopping criterion = force tolerance
  Energy initial, next-to-last, final = 
     -487.808225010481  -487.808225010481  -487.808225010492
  Force two-norm initial, final = 0.00011394038 0.00011375429
  Force max component initial, final = 2.9135565e-05 2.9101294e-05
  Final line search alpha, max atom move = 0 0
  Iterations, force evaluations = 1 2

MPI task timing breakdown:
Section |  min time  |  avg time  |  max time  |%varavg| %total
---------------------------------------------------------------
Pair    | 0.00011593 | 0.00011593 | 0.00011593 |   0.0 | 40.86
Neigh   | 0          | 0          | 0          |   0.0 |  0.00
Comm    | 1.826e-06  | 1.826e-06  | 1.826e-06  |   0.0 |  0.64
Output  | 0          | 0          | 0          |   0.0 |  0.00
Modify  | 0          | 0          | 0          |   0.0 |  0.00
Other   |            | 0.000166   |            |       | 58.50

Nlocal:             62 ave          62 max          62 min
Histogram: 1 0 0 0 0 0 0 0 0 0
Nghost:            162 ave         162 max         162 min
Histogram: 1 0 0 0 0 0 0 0 0 0
Neighs:              0 ave           0 max           0 min
Histogram: 1 0 0 0 0 0 0 0 0 0
FullNghs:         1404 ave        1404 max        1404 min
Histogram: 1 0 0 0 0 0 0 0 0 0

Total # of neighbors = 1404
Ave neighs/atom = 22.645161
Neighbor list builds = 0
Dangerous builds = 0

next nr
jump ${simname}.in loopmin
jump Tersoff.in loopmin

# Minimize the with cg + box/relax
  fix             frb all box/relax tri 0.0 couple none
  min_style       cg
  min_modify      line quadratic
  minimize        0.0 1.0e-3 10000 10000
WARNING: Energy due to 6 extra global DOFs will be included in minimizer energies
 (src/min.cpp:225)
Per MPI rank memory allocation (min/avg/max) = 4.203 | 4.203 | 4.203 Mbytes
   Step          Temp          PotEng           Lx             Ly             Lz            Pxx            Pyy            Pzz            Fmax          Fnorm     
      1365  6.613220572315516e-10   -487.8082250104918    9.896693045823396    8.570787322010402    51.58431095426652 -0.01910296407663609  0.01817351064262277 0.0005874563624612014 2.910129354194435e-05 0.0001137542876339871
      1366  6.613220572315516e-10   -487.8082250104998    9.896692642265643    8.570787654497183    51.58431101895178  0.03105309214153904 -0.02994111518892581 0.000557849498976291 2.907715108052544e-05 0.0001139976744012775
Loop time of 0.000335363 on 1 procs for 1 steps with 62 atoms

16.1% CPU use with 1 MPI tasks x no OpenMP threads

Minimization stats:
  Stopping criterion = force tolerance
  Energy initial, next-to-last, final = 
     -487.808225010492  -487.808225010492    -487.8082250105
  Force two-norm initial, final = 0.00014392063 0.00018445036
  Force max component initial, final = 5.2169762e-05 8.4805294e-05
  Final line search alpha, max atom move = 1 8.4805294e-05
  Iterations, force evaluations = 1 2

MPI task timing breakdown:
Section |  min time  |  avg time  |  max time  |%varavg| %total
---------------------------------------------------------------
Pair    | 0.00010776 | 0.00010776 | 0.00010776 |   0.0 | 32.13
Neigh   | 0          | 0          | 0          |   0.0 |  0.00
Comm    | 1.652e-06  | 1.652e-06  | 1.652e-06  |   0.0 |  0.49
Output  | 0          | 0          | 0          |   0.0 |  0.00
Modify  | 0          | 0          | 0          |   0.0 |  0.00
Other   |            | 0.000226   |            |       | 67.38

Nlocal:             62 ave          62 max          62 min
Histogram: 1 0 0 0 0 0 0 0 0 0
Nghost:            162 ave         162 max         162 min
Histogram: 1 0 0 0 0 0 0 0 0 0
Neighs:              0 ave           0 max           0 min
Histogram: 1 0 0 0 0 0 0 0 0 0
FullNghs:         1404 ave        1404 max        1404 min
Histogram: 1 0 0 0 0 0 0 0 0 0

Total # of neighbors = 1404
Ave neighs/atom = 22.645161
Neighbor list builds = 0
Dangerous builds = 0

# Minimize the with fire
  unfix           frb
  min_style       fire
  minimize        0.0 1.0e-3 10000 10000
  Parameters for fire:
    dmax  delaystep dtgrow dtshrink alpha0 alphashrink tmax tmin   integrator   halfstepback   abcfire  
     0.1     20      1.1     0.5     0.25     0.99      10  0.02 eulerimplicit      yes          no     
Per MPI rank memory allocation (min/avg/max) = 3.078 | 3.078 | 3.078 Mbytes
   Step          Temp          PotEng           Lx             Ly             Lz            Pxx            Pyy            Pzz            Fmax          Fnorm     
      1366                     0   -487.8082250104996    9.896692642265643    8.570787654497183    51.58431101895178  0.03105309194191905 -0.02994111489325655 0.0005578458798748179 2.907715097189012e-05 0.0001139976743775422
      1367  6.619873193076323e-10   -487.8082250105102    9.896692642265643    8.570787654497183    51.58431101895178  0.03034364877322017 -0.02967178255754831  0.00064884452751437 2.904305179868283e-05 0.000113763683214704
Loop time of 0.000308466 on 1 procs for 1 steps with 62 atoms

15.6% CPU use with 1 MPI tasks x no OpenMP threads

Minimization stats:
  Stopping criterion = force tolerance
  Energy initial, next-to-last, final = 
       -487.8082250105    -487.8082250105   -487.80822501051
  Force two-norm initial, final = 0.00011399767 0.00011376368
  Force max component initial, final = 2.9077151e-05 2.9043052e-05
  Final line search alpha, max atom move = 0 0
  Iterations, force evaluations = 1 2

MPI task timing breakdown:
Section |  min time  |  avg time  |  max time  |%varavg| %total
---------------------------------------------------------------
Pair    | 0.00010434 | 0.00010434 | 0.00010434 |   0.0 | 33.82
Neigh   | 0          | 0          | 0          |   0.0 |  0.00
Comm    | 1.368e-06  | 1.368e-06  | 1.368e-06  |   0.0 |  0.44
Output  | 0          | 0          | 0          |   0.0 |  0.00
Modify  | 0          | 0          | 0          |   0.0 |  0.00
Other   |            | 0.0002028  |            |       | 65.73

Nlocal:             62 ave          62 max          62 min
Histogram: 1 0 0 0 0 0 0 0 0 0
Nghost:            162 ave         162 max         162 min
Histogram: 1 0 0 0 0 0 0 0 0 0
Neighs:              0 ave           0 max           0 min
Histogram: 1 0 0 0 0 0 0 0 0 0
FullNghs:         1404 ave        1404 max        1404 min
Histogram: 1 0 0 0 0 0 0 0 0 0

Total # of neighbors = 1404
Ave neighs/atom = 22.645161
Neighbor list builds = 0
Dangerous builds = 0

next nr
jump ${simname}.in loopmin
jump Tersoff.in loopmin

# Minimize the with cg + box/relax
  fix             frb all box/relax tri 0.0 couple none
  min_style       cg
  min_modify      line quadratic
  minimize        0.0 1.0e-3 10000 10000
WARNING: Energy due to 6 extra global DOFs will be included in minimizer energies
 (src/min.cpp:225)
Per MPI rank memory allocation (min/avg/max) = 4.203 | 4.203 | 4.203 Mbytes
   Step          Temp          PotEng           Lx             Ly             Lz            Pxx            Pyy            Pzz            Fmax          Fnorm     
      1367  6.619873193076323e-10   -487.8082250105102    9.896692642265643    8.570787654497183    51.58431101895178  0.03034364864378102 -0.02967178252112326 0.000648844561988077 2.904305183110134e-05 0.0001137636832140045
      1368  6.619873193076323e-10   -487.8082250105181    9.896693037609113    8.570787319700566    51.58431106301462  -0.0191798579274498  0.01838857161306902 0.0005438408865783428 2.901846501562888e-05 0.0001134982385393622
Loop time of 0.000412012 on 1 procs for 1 steps with 62 atoms

12.4% CPU use with 1 MPI tasks x no OpenMP threads

Minimization stats:
  Stopping criterion = force tolerance
  Energy initial, next-to-last, final = 
      -487.80822501051   -487.80822501051  -487.808225010518
  Force two-norm initial, final = 0.00018255273 0.00014434404
  Force max component initial, final = 8.3347258e-05 5.2379755e-05
  Final line search alpha, max atom move = 1 5.2379755e-05
  Iterations, force evaluations = 1 2

MPI task timing breakdown:
Section |  min time  |  avg time  |  max time  |%varavg| %total
---------------------------------------------------------------
Pair    | 0.00010481 | 0.00010481 | 0.00010481 |   0.0 | 25.44
Neigh   | 0          | 0          | 0          |   0.0 |  0.00
Comm    | 1.838e-06  | 1.838e-06  | 1.838e-06  |   0.0 |  0.45
Output  | 0          | 0          | 0          |   0.0 |  0.00
Modify  | 0          | 0          | 0          |   0.0 |  0.00
Other   |            | 0.0003054  |            |       | 74.11

Nlocal:             62 ave          62 max          62 min
Histogram: 1 0 0 0 0 0 0 0 0 0
Nghost:            162 ave         162 max         162 min
Histogram: 1 0 0 0 0 0 0 0 0 0
Neighs:              0 ave           0 max           0 min
Histogram: 1 0 0 0 0 0 0 0 0 0
FullNghs:         1404 ave        1404 max        1404 min
Histogram: 1 0 0 0 0 0 0 0 0 0

Total # of neighbors = 1404
Ave neighs/atom = 22.645161
Neighbor list builds = 0
Dangerous builds = 0

# Minimize the with fire
  unfix           frb
  min_style       fire
  minimize        0.0 1.0e-3 10000 10000
  Parameters for fire:
    dmax  delaystep dtgrow dtshrink alpha0 alphashrink tmax tmin   integrator   halfstepback   abcfire  
     0.1     20      1.1     0.5     0.25     0.99      10  0.02 eulerimplicit      yes          no     
Per MPI rank memory allocation (min/avg/max) = 3.078 | 3.078 | 3.078 Mbytes
   Step          Temp          PotEng           Lx             Ly             Lz            Pxx            Pyy            Pzz            Fmax          Fnorm     
      1368                     0   -487.8082250105185    9.896693037609113    8.570787319700566    51.58431106301462 -0.01917985838838844  0.01838857152596793 0.0005438372838202149 2.901846516972784e-05 0.0001134982385465094
      1369  6.561995529172713e-10   -487.8082250105284    9.896693037609113    8.570787319700566    51.58431106301462 -0.01908524291865996  0.01785758967087276 0.0006325723131648808 2.898450448018952e-05 0.0001133115320886523
Loop time of 0.000333999 on 1 procs for 1 steps with 62 atoms

15.6% CPU use with 1 MPI tasks x no OpenMP threads

Minimization stats:
  Stopping criterion = force tolerance
  Energy initial, next-to-last, final = 
     -487.808225010519  -487.808225010519  -487.808225010528
  Force two-norm initial, final = 0.00011349824 0.00011331153
  Force max component initial, final = 2.9018465e-05 2.8984504e-05
  Final line search alpha, max atom move = 0 0
  Iterations, force evaluations = 1 2

MPI task timing breakdown:
Section |  min time  |  avg time  |  max time  |%varavg| %total
---------------------------------------------------------------
Pair    | 0.00010443 | 0.00010443 | 0.00010443 |   0.0 | 31.27
Neigh   | 0          | 0          | 0          |   0.0 |  0.00
Comm    | 1.485e-06  | 1.485e-06  | 1.485e-06  |   0.0 |  0.44
Output  | 0          | 0          | 0          |   0.0 |  0.00
Modify  | 0          | 0          | 0          |   0.0 |  0.00
Other   |            | 0.0002281  |            |       | 68.29

Nlocal:             62 ave          62 max          62 min
Histogram: 1 0 0 0 0 0 0 0 0 0
Nghost:            162 ave         162 max         162 min
Histogram: 1 0 0 0 0 0 0 0 0 0
Neighs:              0 ave           0 max           0 min
Histogram: 1 0 0 0 0 0 0 0 0 0
FullNghs:         1404 ave        1404 max        1404 min
Histogram: 1 0 0 0 0 0 0 0 0 0

Total # of neighbors = 1404
Ave neighs/atom = 22.645161
Neighbor list builds = 0
Dangerous builds = 0

next nr
jump ${simname}.in loopmin
jump Tersoff.in loopmin

# Minimize the with cg + box/relax
  fix             frb all box/relax tri 0.0 couple none
  min_style       cg
  min_modify      line quadratic
  minimize        0.0 1.0e-3 10000 10000
WARNING: Energy due to 6 extra global DOFs will be included in minimizer energies
 (src/min.cpp:225)
Per MPI rank memory allocation (min/avg/max) = 4.203 | 4.203 | 4.203 Mbytes
   Step          Temp          PotEng           Lx             Ly             Lz            Pxx            Pyy            Pzz            Fmax          Fnorm     
      1369  6.561995529172713e-10   -487.8082250105292    9.896693037609113    8.570787319700566    51.58431106301462 -0.01908524337446552  0.01785758914270955 0.0006325722845451996 2.898450450383727e-05 0.0001133115321079249
      1370  6.561995529172713e-10   -487.8082250105366    9.896692633431956    8.570787647212784    51.58431113283934  0.03117444492778005 -0.02953935365184962 0.0006111122550570312 2.896355264719874e-05 0.0001135396789912633
Loop time of 0.000335687 on 1 procs for 1 steps with 62 atoms

15.8% CPU use with 1 MPI tasks x no OpenMP threads

Minimization stats:
  Stopping criterion = force tolerance
  Energy initial, next-to-last, final = 
     -487.808225010529  -487.808225010529  -487.808225010537
  Force two-norm initial, final = 0.00014324609 0.00018395322
  Force max component initial, final = 5.2121367e-05 8.5136706e-05
  Final line search alpha, max atom move = 1 8.5136706e-05
  Iterations, force evaluations = 1 2

MPI task timing breakdown:
Section |  min time  |  avg time  |  max time  |%varavg| %total
---------------------------------------------------------------
Pair    | 0.00010441 | 0.00010441 | 0.00010441 |   0.0 | 31.10
Neigh   | 0          | 0          | 0          |   0.0 |  0.00
Comm    | 1.292e-06  | 1.292e-06  | 1.292e-06  |   0.0 |  0.38
Output  | 0          | 0          | 0          |   0.0 |  0.00
Modify  | 0          | 0          | 0          |   0.0 |  0.00
Other   |            | 0.00023    |            |       | 68.51

Nlocal:             62 ave          62 max          62 min
Histogram: 1 0 0 0 0 0 0 0 0 0
Nghost:            162 ave         162 max         162 min
Histogram: 1 0 0 0 0 0 0 0 0 0
Neighs:              0 ave           0 max           0 min
Histogram: 1 0 0 0 0 0 0 0 0 0
FullNghs:         1404 ave        1404 max        1404 min
Histogram: 1 0 0 0 0 0 0 0 0 0

Total # of neighbors = 1404
Ave neighs/atom = 22.645161
Neighbor list builds = 0
Dangerous builds = 0

# Minimize the with fire
  unfix           frb
  min_style       fire
  minimize        0.0 1.0e-3 10000 10000
  Parameters for fire:
    dmax  delaystep dtgrow dtshrink alpha0 alphashrink tmax tmin   integrator   halfstepback   abcfire  
     0.1     20      1.1     0.5     0.25     0.99      10  0.02 eulerimplicit      yes          no     
Per MPI rank memory allocation (min/avg/max) = 3.078 | 3.078 | 3.078 Mbytes
[...]
Histogram: 1 0 0 0 0 0 0 0 0 0
FullNghs:         1404 ave        1404 max        1404 min
Histogram: 1 0 0 0 0 0 0 0 0 0

Total # of neighbors = 1404
Ave neighs/atom = 22.645161
Neighbor list builds = 0
Dangerous builds = 0

# Minimize the with fire
  unfix           frb
  min_style       fire
  minimize        0.0 1.0e-3 10000 10000
  Parameters for fire:
    dmax  delaystep dtgrow dtshrink alpha0 alphashrink tmax tmin   integrator   halfstepback   abcfire  
     0.1     20      1.1     0.5     0.25     0.99      10  0.02 eulerimplicit      yes          no     
Per MPI rank memory allocation (min/avg/max) = 3.078 | 3.078 | 3.078 Mbytes
   Step          Temp          PotEng           Lx             Ly             Lz            Pxx            Pyy            Pzz            Fmax          Fnorm     
      1544                     0   -487.8082250118602    9.896692793542904    8.570787367742581    51.58431665718792 -0.02375226747357711 -0.02366397950307127 -0.0008275083697252976 2.440447367563214e-05 9.553860644864654e-05
      1545  4.649598919366328e-10   -487.8082250118676    9.896692793542904    8.570787367742581    51.58431665718792 -0.02390612854352563 -0.02381957393046995 -0.0007807466768543548 2.437650113085166e-05 9.540462809734322e-05
Loop time of 0.000353429 on 1 procs for 1 steps with 62 atoms

0.0% CPU use with 1 MPI tasks x no OpenMP threads

Minimization stats:
  Stopping criterion = force tolerance
  Energy initial, next-to-last, final = 
      -487.80822501186   -487.80822501186  -487.808225011868
  Force two-norm initial, final = 9.5538606e-05 9.5404628e-05
  Force max component initial, final = 2.4404474e-05 2.4376501e-05
  Final line search alpha, max atom move = 0 0
  Iterations, force evaluations = 1 2

MPI task timing breakdown:
Section |  min time  |  avg time  |  max time  |%varavg| %total
---------------------------------------------------------------
Pair    | 0.00010462 | 0.00010462 | 0.00010462 |   0.0 | 29.60
Neigh   | 0          | 0          | 0          |   0.0 |  0.00
Comm    | 1.478e-06  | 1.478e-06  | 1.478e-06  |   0.0 |  0.42
Output  | 0          | 0          | 0          |   0.0 |  0.00
Modify  | 0          | 0          | 0          |   0.0 |  0.00
Other   |            | 0.0002473  |            |       | 69.98

Nlocal:             62 ave          62 max          62 min
Histogram: 1 0 0 0 0 0 0 0 0 0
Nghost:            162 ave         162 max         162 min
Histogram: 1 0 0 0 0 0 0 0 0 0
Neighs:              0 ave           0 max           0 min
Histogram: 1 0 0 0 0 0 0 0 0 0
FullNghs:         1404 ave        1404 max        1404 min
Histogram: 1 0 0 0 0 0 0 0 0 0

Total # of neighbors = 1404
Ave neighs/atom = 22.645161
Neighbor list builds = 0
Dangerous builds = 0

next nr
jump ${simname}.in loopmin
jump Tersoff.in loopmin

# Minimize the with cg + box/relax
  fix             frb all box/relax tri 0.0 couple none
  min_style       cg
  min_modify      line quadratic
  minimize        0.0 1.0e-3 10000 10000
WARNING: Energy due to 6 extra global DOFs will be included in minimizer energies
 (src/min.cpp:225)
Per MPI rank memory allocation (min/avg/max) = 4.203 | 4.203 | 4.203 Mbytes
   Step          Temp          PotEng           Lx             Ly             Lz            Pxx            Pyy            Pzz            Fmax          Fnorm     
      1545  4.649598919366328e-10   -487.8082250118671    9.896692793542904    8.570787367742581    51.58431665718792 -0.02390612825417832 -0.02381957348166135 -0.0007807466092078415 2.437650108250144e-05 9.540462808256105e-05
      1546  4.649598919366328e-10   -487.8082250118725    9.896692467058894    8.570787086022838    51.58431660161134  0.01851926990920767   0.0184581159883625 0.001775902770451411 2.466488847602255e-05 9.575999347047586e-05
Loop time of 0.000374852 on 1 procs for 1 steps with 62 atoms

0.0% CPU use with 1 MPI tasks x no OpenMP threads

Minimization stats:
  Stopping criterion = force tolerance
  Energy initial, next-to-last, final = 
     -487.808225011867  -487.808225011867  -487.808225011873
  Force two-norm initial, final = 0.00014389025 0.00012761113
  Force max component initial, final = 6.52871e-05 5.0575709e-05
  Final line search alpha, max atom move = 1 5.0575709e-05
  Iterations, force evaluations = 1 2

MPI task timing breakdown:
Section |  min time  |  avg time  |  max time  |%varavg| %total
---------------------------------------------------------------
Pair    | 0.00012669 | 0.00012669 | 0.00012669 |   0.0 | 33.80
Neigh   | 0          | 0          | 0          |   0.0 |  0.00
Comm    | 1.736e-06  | 1.736e-06  | 1.736e-06  |   0.0 |  0.46
Output  | 0          | 0          | 0          |   0.0 |  0.00
Modify  | 0          | 0          | 0          |   0.0 |  0.00
Other   |            | 0.0002464  |            |       | 65.74

Nlocal:             62 ave          62 max          62 min
Histogram: 1 0 0 0 0 0 0 0 0 0
Nghost:            162 ave         162 max         162 min
Histogram: 1 0 0 0 0 0 0 0 0 0
Neighs:              0 ave           0 max           0 min
Histogram: 1 0 0 0 0 0 0 0 0 0
FullNghs:         1404 ave        1404 max        1404 min
Histogram: 1 0 0 0 0 0 0 0 0 0

Total # of neighbors = 1404
Ave neighs/atom = 22.645161
Neighbor list builds = 0
Dangerous builds = 0

# Minimize the with fire
  unfix           frb
  min_style       fire
  minimize        0.0 1.0e-3 10000 10000
  Parameters for fire:
    dmax  delaystep dtgrow dtshrink alpha0 alphashrink tmax tmin   integrator   halfstepback   abcfire  
     0.1     20      1.1     0.5     0.25     0.99      10  0.02 eulerimplicit      yes          no     
Per MPI rank memory allocation (min/avg/max) = 3.078 | 3.078 | 3.078 Mbytes
   Step          Temp          PotEng           Lx             Ly             Lz            Pxx            Pyy            Pzz            Fmax          Fnorm     
      1546                     0   -487.8082250118723    9.896692467058894    8.570787086022838    51.58431660161134  0.01851927004516163  0.01845811617341187 0.001775900043989633 2.466488845948023e-05 9.575999347439184e-05
      1547  4.671172471273973e-10     -487.80822501188    9.896692467058894    8.570787086022838    51.58431660161134  0.01829942893488067  0.01823899656956349 0.001898400290922115 2.463680297226656e-05 9.562826629361547e-05
Loop time of 0.000326089 on 1 procs for 1 steps with 62 atoms

0.0% CPU use with 1 MPI tasks x no OpenMP threads

Minimization stats:
  Stopping criterion = force tolerance
  Energy initial, next-to-last, final = 
     -487.808225011872  -487.808225011872   -487.80822501188
  Force two-norm initial, final = 9.5759993e-05 9.5628266e-05
  Force max component initial, final = 2.4664888e-05 2.4636803e-05
  Final line search alpha, max atom move = 0 0
  Iterations, force evaluations = 1 2

MPI task timing breakdown:
Section |  min time  |  avg time  |  max time  |%varavg| %total
---------------------------------------------------------------
Pair    | 0.0001038  | 0.0001038  | 0.0001038  |   0.0 | 31.83
Neigh   | 0          | 0          | 0          |   0.0 |  0.00
Comm    | 1.484e-06  | 1.484e-06  | 1.484e-06  |   0.0 |  0.46
Output  | 0          | 0          | 0          |   0.0 |  0.00
Modify  | 0          | 0          | 0          |   0.0 |  0.00
Other   |            | 0.0002208  |            |       | 67.71

Nlocal:             62 ave          62 max          62 min
Histogram: 1 0 0 0 0 0 0 0 0 0
Nghost:            162 ave         162 max         162 min
Histogram: 1 0 0 0 0 0 0 0 0 0
Neighs:              0 ave           0 max           0 min
Histogram: 1 0 0 0 0 0 0 0 0 0
FullNghs:         1404 ave        1404 max        1404 min
Histogram: 1 0 0 0 0 0 0 0 0 0

Total # of neighbors = 1404
Ave neighs/atom = 22.645161
Neighbor list builds = 0
Dangerous builds = 0

next nr
jump ${simname}.in loopmin
jump Tersoff.in loopmin

# Minimize the with cg + box/relax
  fix             frb all box/relax tri 0.0 couple none
  min_style       cg
  min_modify      line quadratic
  minimize        0.0 1.0e-3 10000 10000
WARNING: Energy due to 6 extra global DOFs will be included in minimizer energies
 (src/min.cpp:225)
Per MPI rank memory allocation (min/avg/max) = 4.203 | 4.203 | 4.203 Mbytes
   Step          Temp          PotEng           Lx             Ly             Lz            Pxx            Pyy            Pzz            Fmax          Fnorm     
      1547  4.671172471273973e-10     -487.80822501188    9.896692467058894    8.570787086022838    51.58431660161134   0.0182994287761791  0.01823899643687224 0.001898400335802978 2.463680295672344e-05 9.562826628489489e-05
      1548  4.671172471273973e-10   -487.8082250118854    9.896692789870354    8.570787364662527     51.5843167761639   -0.024004708769318 -0.02393229882292714 -0.0008480437467133555 2.431125489865682e-05 9.517759278899133e-05
Loop time of 0.000301894 on 1 procs for 1 steps with 62 atoms

0.0% CPU use with 1 MPI tasks x no OpenMP threads

Minimization stats:
  Stopping criterion = force tolerance
  Energy initial, next-to-last, final = 
      -487.80822501188   -487.80822501188  -487.808225011885
  Force two-norm initial, final = 0.00012678883 0.00014458668
  Force max component initial, final = 4.9975326e-05 6.5556319e-05
  Final line search alpha, max atom move = 1 6.5556319e-05
  Iterations, force evaluations = 1 2

MPI task timing breakdown:
Section |  min time  |  avg time  |  max time  |%varavg| %total
---------------------------------------------------------------
Pair    | 0.00012655 | 0.00012655 | 0.00012655 |   0.0 | 41.92
Neigh   | 0          | 0          | 0          |   0.0 |  0.00
Comm    | 1.944e-06  | 1.944e-06  | 1.944e-06  |   0.0 |  0.64
Output  | 0          | 0          | 0          |   0.0 |  0.00
Modify  | 0          | 0          | 0          |   0.0 |  0.00
Other   |            | 0.0001734  |            |       | 57.44

Nlocal:             62 ave          62 max          62 min
Histogram: 1 0 0 0 0 0 0 0 0 0
Nghost:            162 ave         162 max         162 min
Histogram: 1 0 0 0 0 0 0 0 0 0
Neighs:              0 ave           0 max           0 min
Histogram: 1 0 0 0 0 0 0 0 0 0
FullNghs:         1404 ave        1404 max        1404 min
Histogram: 1 0 0 0 0 0 0 0 0 0

Total # of neighbors = 1404
Ave neighs/atom = 22.645161
Neighbor list builds = 0
Dangerous builds = 0

# Minimize the with fire
  unfix           frb
  min_style       fire
  minimize        0.0 1.0e-3 10000 10000
  Parameters for fire:
    dmax  delaystep dtgrow dtshrink alpha0 alphashrink tmax tmin   integrator   halfstepback   abcfire  
     0.1     20      1.1     0.5     0.25     0.99      10  0.02 eulerimplicit      yes          no     
Per MPI rank memory allocation (min/avg/max) = 3.078 | 3.078 | 3.078 Mbytes
   Step          Temp          PotEng           Lx             Ly             Lz            Pxx            Pyy            Pzz            Fmax          Fnorm     
      1548                     0   -487.8082250118856    9.896692789870354    8.570787364662527     51.5843167761639 -0.02400470894374216 -0.02393229920583919 -0.0008480464801320022 2.431125492818875e-05 9.517759277598444e-05
      1549  4.614526242836529e-10   -487.8082250118928    9.896692789870354    8.570787364662527     51.5843167761639 -0.02415784529501518 -0.02408683834101338 -0.000801664985967115 2.428338225718418e-05 9.504374030986437e-05
Loop time of 0.000323562 on 1 procs for 1 steps with 62 atoms

13.3% CPU use with 1 MPI tasks x no OpenMP threads

Minimization stats:
  Stopping criterion = force tolerance
  Energy initial, next-to-last, final = 
     -487.808225011886  -487.808225011886  -487.808225011893
  Force two-norm initial, final = 9.5177593e-05 9.504374e-05
  Force max component initial, final = 2.4311255e-05 2.4283382e-05
  Final line search alpha, max atom move = 0 0
  Iterations, force evaluations = 1 2

MPI task timing breakdown:
Section |  min time  |  avg time  |  max time  |%varavg| %total
---------------------------------------------------------------
Pair    | 0.00010836 | 0.00010836 | 0.00010836 |   0.0 | 33.49
Neigh   | 0          | 0          | 0          |   0.0 |  0.00
Comm    | 1.695e-06  | 1.695e-06  | 1.695e-06  |   0.0 |  0.52
Output  | 0          | 0          | 0          |   0.0 |  0.00
Modify  | 0          | 0          | 0          |   0.0 |  0.00
Other   |            | 0.0002135  |            |       | 65.99

Nlocal:             62 ave          62 max          62 min
Histogram: 1 0 0 0 0 0 0 0 0 0
Nghost:            162 ave         162 max         162 min
Histogram: 1 0 0 0 0 0 0 0 0 0
Neighs:              0 ave           0 max           0 min
Histogram: 1 0 0 0 0 0 0 0 0 0
FullNghs:         1404 ave        1404 max        1404 min
Histogram: 1 0 0 0 0 0 0 0 0 0

Total # of neighbors = 1404
Ave neighs/atom = 22.645161
Neighbor list builds = 0
Dangerous builds = 0

next nr
jump ${simname}.in loopmin
jump Tersoff.in loopmin

# Minimize the with cg + box/relax
  fix             frb all box/relax tri 0.0 couple none
  min_style       cg
  min_modify      line quadratic
  minimize        0.0 1.0e-3 10000 10000
Per MPI rank memory allocation (min/avg/max) = 4.203 | 4.203 | 4.203 Mbytes
   Step          Temp          PotEng           Lx             Ly             Lz            Pxx            Pyy            Pzz            Fmax          Fnorm     
WARNING: Too many warnings: 101 vs 100. All future warnings will be suppressed (src/thermo.cpp:472)
      1549  4.614526242836529e-10   -487.8082250118929    9.896692789870354    8.570787364662527     51.5843167761639 -0.02415784518407737 -0.02408683853354577 -0.000801665092640463 2.428338232612903e-05 9.504374029528637e-05
      1550  4.614526242836529e-10   -487.8082250118978    9.896692464125824    8.570787083388671    51.58431671982077  0.01817421029252289  0.01812558679045871 0.001752026226007428 2.457146688994438e-05 9.53958811875365e-05
Loop time of 0.000422829 on 1 procs for 1 steps with 62 atoms

15.4% CPU use with 1 MPI tasks x no OpenMP threads

Minimization stats:
  Stopping criterion = force tolerance
  Energy initial, next-to-last, final = 
     -487.808225011893  -487.808225011893  -487.808225011898
  Force two-norm initial, final = 0.00014453215 0.0001263215
  Force max component initial, final = 6.5974534e-05 4.9633359e-05
  Final line search alpha, max atom move = 1 4.9633359e-05
  Iterations, force evaluations = 1 2

MPI task timing breakdown:
Section |  min time  |  avg time  |  max time  |%varavg| %total
---------------------------------------------------------------
Pair    | 0.00010658 | 0.00010658 | 0.00010658 |   0.0 | 25.21
Neigh   | 0          | 0          | 0          |   0.0 |  0.00
Comm    | 2.022e-06  | 2.022e-06  | 2.022e-06  |   0.0 |  0.48
Output  | 0          | 0          | 0          |   0.0 |  0.00
Modify  | 0          | 0          | 0          |   0.0 |  0.00
Other   |            | 0.0003142  |            |       | 74.32

Nlocal:             62 ave          62 max          62 min
Histogram: 1 0 0 0 0 0 0 0 0 0
Nghost:            162 ave         162 max         162 min
Histogram: 1 0 0 0 0 0 0 0 0 0
Neighs:              0 ave           0 max           0 min
Histogram: 1 0 0 0 0 0 0 0 0 0
FullNghs:         1404 ave        1404 max        1404 min
Histogram: 1 0 0 0 0 0 0 0 0 0

Total # of neighbors = 1404
Ave neighs/atom = 22.645161
Neighbor list builds = 0
Dangerous builds = 0

# Minimize the with fire
  unfix           frb
  min_style       fire
  minimize        0.0 1.0e-3 10000 10000
  Parameters for fire:
    dmax  delaystep dtgrow dtshrink alpha0 alphashrink tmax tmin   integrator   halfstepback   abcfire  
     0.1     20      1.1     0.5     0.25     0.99      10  0.02 eulerimplicit      yes          no     
Per MPI rank memory allocation (min/avg/max) = 3.078 | 3.078 | 3.078 Mbytes
   Step          Temp          PotEng           Lx             Ly             Lz            Pxx            Pyy            Pzz            Fmax          Fnorm     
      1550                     0   -487.8082250118975    9.896692464125824    8.570787083388671    51.58431671982077  0.01817421018099478  0.01812558690539191 0.001752023694540205 2.457146690715284e-05 9.539588118606845e-05
      1551  4.635717211047743e-10   -487.8082250119053    9.896692464125824    8.570787083388671    51.58431671982077  0.01795545638992574  0.01790741857312911 0.001873970578485623 2.45434813296308e-05 9.526484283248947e-05
Loop time of 0.000323396 on 1 procs for 1 steps with 62 atoms

20.4% CPU use with 1 MPI tasks x no OpenMP threads

Minimization stats:
  Stopping criterion = force tolerance
  Energy initial, next-to-last, final = 
     -487.808225011898  -487.808225011898  -487.808225011905
  Force two-norm initial, final = 9.5395881e-05 9.5264843e-05
  Force max component initial, final = 2.4571467e-05 2.4543481e-05
  Final line search alpha, max atom move = 0 0
  Iterations, force evaluations = 1 2

MPI task timing breakdown:
Section |  min time  |  avg time  |  max time  |%varavg| %total
---------------------------------------------------------------
Pair    | 0.00012785 | 0.00012785 | 0.00012785 |   0.0 | 39.53
Neigh   | 0          | 0          | 0          |   0.0 |  0.00
Comm    | 2.166e-06  | 2.166e-06  | 2.166e-06  |   0.0 |  0.67
Output  | 0          | 0          | 0          |   0.0 |  0.00
Modify  | 0          | 0          | 0          |   0.0 |  0.00
Other   |            | 0.0001934  |            |       | 59.80

Nlocal:             62 ave          62 max          62 min
Histogram: 1 0 0 0 0 0 0 0 0 0
Nghost:            162 ave         162 max         162 min
Histogram: 1 0 0 0 0 0 0 0 0 0
Neighs:              0 ave           0 max           0 min
Histogram: 1 0 0 0 0 0 0 0 0 0
FullNghs:         1404 ave        1404 max        1404 min
Histogram: 1 0 0 0 0 0 0 0 0 0

Total # of neighbors = 1404
Ave neighs/atom = 22.645161
Neighbor list builds = 0
Dangerous builds = 0

next nr
jump ${simname}.in loopmin
jump Tersoff.in loopmin

variable        energy equal pe
fix             output all ave/time 1 1 1 v_energy file ${simname}_energy.data
fix             output all ave/time 1 1 1 v_energy file Tersoff_energy.data
dump            dump1 all custom 1 ${simname}.lammpstrj id type x y z fx fy fz
dump            dump1 all custom 1 Tersoff.lammpstrj id type x y z fx fy fz
dump_modify     dump1 sort id

fix             nve all nve
run             0
Per MPI rank memory allocation (min/avg/max) = 3.078 | 3.078 | 3.078 Mbytes
   Step          Temp          PotEng           Lx             Ly             Lz            Pxx            Pyy            Pzz            Fmax          Fnorm     
      1551  4.635717211047743e-10   -487.8082250119052    9.896692464125824    8.570787083388671    51.58431671982077  0.01795545625574017  0.01790741846515486  0.00187397090045703 2.454348134039996e-05 9.526484282574125e-05
Loop time of 5.95e-07 on 1 procs for 0 steps with 62 atoms

168.1% CPU use with 1 MPI tasks x no OpenMP threads

MPI task timing breakdown:
Section |  min time  |  avg time  |  max time  |%varavg| %total
---------------------------------------------------------------
Pair    | 0          | 0          | 0          |   0.0 |  0.00
Neigh   | 0          | 0          | 0          |   0.0 |  0.00
Comm    | 0          | 0          | 0          |   0.0 |  0.00
Output  | 0          | 0          | 0          |   0.0 |  0.00
Modify  | 0          | 0          | 0          |   0.0 |  0.00
Other   |            | 5.95e-07   |            |       |100.00

Nlocal:             62 ave          62 max          62 min
Histogram: 1 0 0 0 0 0 0 0 0 0
Nghost:            162 ave         162 max         162 min
Histogram: 1 0 0 0 0 0 0 0 0 0
Neighs:              0 ave           0 max           0 min
Histogram: 1 0 0 0 0 0 0 0 0 0
FullNghs:         1404 ave        1404 max        1404 min
Histogram: 1 0 0 0 0 0 0 0 0 0

Total # of neighbors = 1404
Ave neighs/atom = 22.645161
Neighbor list builds = 0
Dangerous builds = 0
Total wall time: 0:00:00
