ITEM: TIMESTEP
1551
ITEM: NUMBER OF ATOMS
62
ITEM: BOX BOUNDS xy xz yz pp pp pp
-5.0609709562920407e-02 1.4794915001867418e+01 4.9483463891190587e+00
-4.3778302644326986e-02 8.5274015459700507e+00 4.8585818545370294e-04
-8.1628219311026995e-01 5.0768034526710501e+01 3.9276522570646865e-04
ITEM: ATOMS id type x y z fx fy fz
1 1 -0.0477184 -0.0422981 22.7647 1.34755e-06 4.51317e-07 1.61373e-07
2 1 1.18388 0.668767 22.6881 -2.46459e-07 1.36897e-07 -1.77863e-05
3 1 -0.0477184 -0.0422981 18.9335 1.34585e-06 4.49378e-07 -1.49568e-07
4 1 1.18388 0.668767 19.0102 -2.48157e-07 1.34967e-07 1.77939e-05
5 1 11.0645 2.10849 22.6066 9.80644e-07 -2.747e-07 -1.98217e-05
6 1 2.42267 2.81442 22.6881 -4.8402e-07 -3.36544e-07 -1.79777e-05
7 1 11.0645 2.10849 19.0916 9.79329e-07 -2.77235e-07 1.98271e-05
8 1 2.42267 2.81442 19.0102 -4.84781e-07 -3.38646e-07 1.7989e-05
9 1 2.42267 4.23655 22.7647 5.63603e-07 -8.63168e-07 -6.54814e-08
10 1 3.65941 4.94988 22.7101 4.63854e-07 -7.09497e-07 8.5113e-06
11 1 2.42267 4.23655 18.9335 5.64163e-07 -8.65581e-07 6.40035e-08
12 1 3.65941 4.94988 18.9882 4.63317e-07 -7.11378e-07 -8.49717e-06
13 1 3.66981 6.37781 22.8628 1.73361e-06 -7.05924e-07 1.85149e-05
14 1 4.90123 7.10077 22.7101 5.41657e-07 -5.85146e-07 8.70762e-06
15 1 3.66981 6.37781 18.8355 1.73316e-06 -7.07703e-07 -1.85089e-05
16 1 4.90123 7.10077 18.9882 5.39495e-07 -5.87037e-07 -8.69622e-06
17 1 7.37102 8.50576 22.6067 5.034e-07 6.31106e-07 -2.00696e-05
18 1 3.66147 0.668767 22.6881 -8.32621e-07 2.00984e-07 -1.82528e-05
19 1 7.37102 8.50576 19.0916 5.01511e-07 6.29481e-07 2.00708e-05
20 1 3.66147 0.668767 19.0102 -8.34052e-07 1.99982e-07 1.82579e-05
21 1 3.67755 2.10849 22.6067 -1.20146e-07 -3.5919e-07 -2.02456e-05
22 1 4.93685 2.83554 22.3867 -7.31883e-07 -1.13749e-07 -8.92055e-06
23 1 3.67755 2.10849 19.0916 -1.21929e-07 -3.61331e-07 2.0266e-05
24 1 4.93685 2.83554 19.3116 -7.3545e-07 -1.17126e-07 8.94894e-06
25 1 4.86295 4.26133 22.2706 -1.70599e-07 1.00262e-06 -6.89255e-07
26 1 5.77219 5.164 21.5737 -3.35243e-06 1.70082e-06 -1.12035e-06
27 1 4.86295 4.26133 19.4277 -1.74639e-07 1.00057e-06 7.14935e-07
28 1 5.77219 5.164 20.1246 -3.35454e-06 1.69996e-06 1.13866e-06
29 1 6.0993 6.40276 22.2706 -4.14978e-07 -2.524e-07 -5.02429e-07
30 1 7.37102 7.05165 22.3867 -5.2078e-07 2.41472e-07 -8.87002e-06
31 1 6.0993 6.40276 19.4277 -4.17528e-07 -2.5518e-07 5.10813e-07
32 1 7.37102 7.05165 19.3116 -5.2366e-07 2.38446e-07 8.86057e-06
33 1 4.89307 -0.0422981 22.7647 -1.44371e-07 4.07436e-07 -3.98691e-07
34 1 6.1292 0.672082 22.7101 -7.0819e-07 1.11078e-06 8.12279e-06
35 1 4.89307 -0.0422981 18.9335 -1.45543e-07 4.07799e-07 3.87694e-07
36 1 6.1292 0.672082 18.9882 -7.09278e-07 1.11042e-06 -8.11753e-06
37 1 6.13467 2.05865 22.2706 9.54779e-07 -1.24307e-06 -6.77328e-07
38 1 7.37102 2.39474 21.5737 -3.79536e-07 -3.75859e-06 -1.37703e-06
39 1 6.13467 2.05865 19.4277 9.52396e-07 -1.24775e-06 6.97531e-07
40 1 7.37102 2.39474 20.1246 -3.8071e-07 -3.76211e-06 1.39076e-06
41 1 8.96985 5.164 21.5737 3.22659e-06 2.06644e-06 -1.65559e-06
42 1 8.96985 5.164 20.1246 3.2251e-06 2.06486e-06 1.62498e-06
43 1 8.64274 6.40276 22.2706 1.64711e-06 6.91889e-08 -4.6818e-07
44 1 9.84081 7.10077 22.7101 -1.46874e-06 -3.66758e-07 8.00159e-06
45 1 8.64274 6.40276 19.4277 1.64429e-06 6.55299e-08 4.36547e-07
46 1 9.84081 7.10077 18.9882 -1.47152e-06 -3.68361e-07 -8.03666e-06
47 1 7.37102 -0.032875 22.8628 5.11346e-07 1.40409e-06 1.84146e-05
48 1 8.61284 0.672082 22.7101 -5.26089e-07 1.11254e-06 8.58344e-06
49 1 7.37102 -0.0328749 18.8355 5.10569e-07 1.40343e-06 -1.84139e-05
50 1 8.61284 0.672082 18.9882 -5.27875e-07 1.11038e-06 -8.57494e-06
51 1 8.60737 2.05865 22.2706 -2.2012e-07 -4.33576e-07 -2.57528e-07
52 1 9.80519 2.83554 22.3867 -2.95716e-07 -1.21798e-07 -8.75098e-06
53 1 8.60737 2.05865 19.4277 -2.22907e-07 -4.36554e-07 2.64321e-07
54 1 9.80519 2.83554 19.3116 -2.9866e-07 -1.24741e-07 8.7445e-06
55 1 9.87909 4.26133 22.2706 7.31446e-07 8.67919e-07 -2.35226e-07
56 1 11.0826 4.94988 22.7101 -1.35691e-06 -5.53554e-07 8.2659e-06
57 1 9.87909 4.26133 19.4277 7.27977e-07 8.6529e-07 2.07477e-07
58 1 11.0826 4.94988 18.9882 -1.35847e-06 -5.56469e-07 -8.29499e-06
59 1 11.0722 6.37781 22.8628 -6.9469e-07 -6.96573e-07 1.83469e-05
60 1 12.3194 7.09784 22.9398 -5.09437e-07 3.36746e-09 2.45308e-05
61 1 11.0722 6.37781 18.8355 -6.96172e-07 -6.98573e-07 -1.83817e-05
62 1 12.3194 7.09784 18.7585 -5.09169e-07 2.54771e-09 -2.45435e-05
