62
Lattice="9.83941088682481 0.16277344408484634 -0.05243747465809831 5.067302678678162 8.435815371325527 -0.053737230657273344 -0.26251353119345444 -0.1591287952506023 51.105915822374335" Properties=species:S:1:pos:R:3:forces:R:3 energy=-567.4653379141465 stress="-9.656762788351267e-07 -3.380066178567419e-08 4.558277623950017e-07 -3.380066178567419e-08 -9.26007008214637e-07 2.6264290949881987e-07 4.558277623950017e-07 2.6264290949881987e-07 -2.2721026412313674e-07" pbc="T T T"
C       14.72961525       8.49279714      19.46208066      -0.00092220      -0.00053175      -0.00212105
C        1.03058504       0.59082952      19.54352482      -0.00101896      -0.00058785      -0.00475931
C        1.07473795       0.61683850      23.14457553      -0.00036743      -0.00021347      -0.00405744
C        2.29355179       1.31985954      22.98545577      -0.00130598      -0.00075664      -0.00960076
C        1.15659576       1.98100526      19.57966510      -0.00078918      -0.00041532      -0.00435417
C        2.48695234       2.46124505      19.64549205       0.00015232      -0.00088099      -0.00490344
C        2.34440418       2.72807543      22.96269999      -0.00149203      -0.00045822      -0.00881843
C        3.55143709       3.41763194      22.69765278      -0.00169048      -0.00052892      -0.00552780
C        2.54081285       3.94329672      19.72132926       0.00051062      -0.00056998      -0.00324253
C        3.72372877       4.78144189      19.84304724       0.00066200      -0.00008966       0.00074897
C        3.70970400       4.77382646      23.01453371      -0.00025134      -0.00062136      -0.00072899
C        5.02747464       5.37818509      23.13625981       0.00023827      -0.00072899       0.00329190
C        3.68138084       6.19987774      19.64789072      -0.00012638      -0.00037951      -0.00024460
C        4.90041285       6.92904829      19.58708999      -0.00036062      -0.00047654       0.00043705
C        4.95766488       6.87466653      23.18602952       0.00021202      -0.00018533       0.00348500
C        6.15123169       7.63831062      23.15573105      -0.00002216      -0.00006892      -0.00004354
C        2.29704882       0.00388496      19.58005137      -0.00075235      -0.00047720      -0.00446234
C        3.37883463       0.91505286      19.64576734      -0.00068533       0.00057418      -0.00495740
C        3.53800946       0.65880460      22.96296353      -0.00113822      -0.00106241      -0.00875338
C        4.73928797       1.35834803      22.69794794      -0.00130709      -0.00120304      -0.00551262
C        5.12964837       2.95547614      20.81291816       0.00172782       0.00099692       0.00271413
C        4.58652677       2.64236999      22.04527463      -0.00172586      -0.00099685      -0.00271151
C        4.97688804       4.23949871      20.16024301       0.00130868       0.00120259       0.00551789
C        6.17816813       4.93904281      19.89523900       0.00113773       0.00106118       0.00874439
C        6.33734210       4.68279321      23.21243137       0.00068628      -0.00057387       0.00494740
C        7.41912821       5.59396115      23.27814725       0.00075285       0.00047750       0.00444997
C        6.16072150       6.31579724      19.66067249       0.00004333      -0.00008247       0.00382959
C        7.39070323       7.04190944      19.60149281      -0.00036200      -0.00018266       0.00008751
C        7.39277727       6.99175234      23.20297336       0.00036128       0.00018258      -0.00010162
C        8.62275878       7.71786418      23.14378276      -0.00004365       0.00008294      -0.00382736
C        4.68870226       0.21966140      19.72193232      -0.00023755       0.00072879      -0.00328903
C        6.00647329       0.82402101      19.84365010       0.00025148       0.00061988       0.00074484
C        5.99244926       0.81640419      23.01513439      -0.00066302       0.00009031      -0.00073089
C        7.17536405       1.65454941      23.13686451      -0.00051018       0.00057059       0.00324357
C        6.16473963       2.18021343      20.16054086       0.00169111       0.00053028       0.00553025
C        7.37177451       2.86977091      19.89550833       0.00149025       0.00045821       0.00880330
C        7.22922431       3.13660098      23.21270982      -0.00015152       0.00088173       0.00489001
C        8.55958122       3.61684082      23.27854034       0.00078957       0.00041588       0.00433447
C        7.42262663       4.27798759      19.87276227       0.00130435       0.00075564       0.00957320
C        8.64144064       4.98100864      19.71364733       0.00036563       0.00021246       0.00402422
C        8.68559210       5.00701679      23.31466889       0.00101928       0.00058806       0.00475291
C        9.89327533       5.70363793      23.28992079       0.00092282       0.00053212       0.00214321
C        8.63224876       6.39535151      19.64874487       0.00002143       0.00006841       0.00002081
C        9.82581521       7.15899533      19.61843172      -0.00021210       0.00018512      -0.00348799
C        9.88306759       7.10461233      23.21734400       0.00036025       0.00047834      -0.00040611
C       11.10209943       7.83378273      23.15653927       0.00012625       0.00038175       0.00028354
C        7.21313810       0.07713520      19.64882169      -0.00039085       0.00008237      -0.00022274
C        8.45468147       0.76727657      19.58799174      -0.00058845      -0.00007318       0.00051135
C        8.43580714       0.84487375      23.18701149      -0.00005383       0.00027592       0.00342587
C        9.69444326       1.49571653      23.15676907      -0.00007318       0.00001405      -0.00014685
C        8.55482938       2.16530401      19.66122102      -0.00004076       0.00007755       0.00395532
C        9.79921322       2.86645276      19.60203599      -0.00033273      -0.00022317       0.00024199
C        9.75637575       2.89416733      23.20374047       0.00033168       0.00022282      -0.00026739
C       11.00075942       3.59531601      23.14454412       0.00004011      -0.00007778      -0.00396390
C        9.86114567       4.26490349      19.64901270       0.00007212      -0.00001436       0.00011755
C       11.11978110       4.91574619      19.61875229       0.00005368      -0.00027591      -0.00343189
C       11.10090630       4.99334426      23.21774862       0.00058939       0.00007197      -0.00048742
C       12.34244918       5.68348574      23.15691142       0.00039260      -0.00008376       0.00025817
C       11.07262794       6.38336866      19.61525614      -0.00020090      -0.00011548      -0.00384667
C       12.29318079       7.08741064      19.57179868      -0.00029244      -0.00016790      -0.00244151
C       12.32970995       7.10902468      23.18019397       0.00029294       0.00016803       0.00248198
C       13.55026319       7.81306681      23.13675655       0.00020066       0.00011528       0.00386033
