62
Lattice="9.827740711570396 0.15764621996660355 -0.19593678742100606 5.057033485541664 8.428247908451251 -0.1972362296969415 -0.9857235963376411 -0.57634230032455 50.54634437732598" Properties=species:S:1:pos:R:3:forces:R:3 energy=-567.658492868296 stress="-6.991688546102656e-07 1.5046722276928719e-07 4.434742756207322e-07 1.5046722276928719e-07 -8.729078711499993e-07 2.5543271349099276e-07 4.434742756207322e-07 2.5543271349099276e-07 -2.0833650861663245e-07" free_energy=-567.658492868296 pbc="T T T"
C       14.43004883       8.31994315      18.96571313      -0.00079951      -0.00046141      -0.00317402
C        0.74906990       0.42842393      19.30561003      -0.00105368      -0.00060935      -0.00692760
C        0.74731860       0.42794670      22.84578834      -0.00086249      -0.00049942      -0.00629786
C        1.95790646       1.12621826      22.65303044      -0.00173875      -0.00100591      -0.00973398
C        0.87696286       1.82105331      19.32096390      -0.00104186      -0.00034992      -0.00559808
C        2.20306436       2.30183141      19.35968321      -0.00064349      -0.00016330      -0.00551424
C        2.00849986       2.53713038      22.62892039      -0.00159981      -0.00055216      -0.00825544
C        3.21454039       3.22686043      22.36205360      -0.00142436      -0.00047607      -0.00461520
C        2.24864874       3.78747392      19.42563964       0.00004707      -0.00021949      -0.00320232
C        3.43277762       4.62388055      19.52821315       0.00052268       0.00010615       0.00041130
C        3.36961787       4.58791906      22.66802766      -0.00035348      -0.00040004      -0.00041609
C        4.68649235       5.19419530      22.77061767       0.00016676      -0.00015096       0.00321113
C        3.39334152       6.03577854      19.32351529      -0.00006758      -0.00022680      -0.00019825
C        4.61061846       6.76028701      19.25081584      -0.00020457      -0.00027102       0.00031510
C        4.62157508       6.68202967      22.80971690       0.00024562       0.00009715       0.00249355
C        5.81165060       7.44339689      22.74832303      -0.00012781      -0.00009203      -0.00202921
C        2.01860601      -0.15812332      19.32131913      -0.00082478      -0.00073026      -0.00563830
C        3.09872943       0.74908564      19.35993964      -0.00046318      -0.00047615      -0.00552867
C        3.20456959       0.46358823      22.62920030      -0.00127414      -0.00110730      -0.00822145
C        4.40549889       1.16218672      22.36235330      -0.00112427      -0.00099545      -0.00460067
C        4.83816332       2.78730664      20.49272751       0.00095932       0.00055419       0.00224958
C        4.25589171       2.45161824      21.70411553      -0.00095781      -0.00055380      -0.00224640
C        4.68855659       4.07673867      19.83448964       0.00112537       0.00099517       0.00460380
C        5.88948667       4.77533713      19.56764776       0.00127413       0.00110686       0.00821869
C        5.99532678       4.48983940      22.83690803       0.00046331       0.00047612       0.00552615
C        7.07545032       5.39704829      22.87552834       0.00082476       0.00073027       0.00563527
C        5.87219189       6.14836389      19.30903031       0.00025053       0.00006072       0.00420719
C        7.09989183       6.87191523      19.21455941      -0.00026128      -0.00020406       0.00081519
C        7.05119827       6.79525776      22.78505406       0.00026083       0.00020388      -0.00082030
C        8.27889800       7.51880876      22.69057750      -0.00025055      -0.00006045      -0.00420601
C        4.40756388       0.04472992      19.42622702      -0.00016654       0.00015082      -0.00320962
C        5.72443846       0.65100634      19.52881286       0.00035374       0.00039980       0.00042252
C        5.66127890       0.61504451      22.66862621      -0.00052261      -0.00010595      -0.00040395
C        6.84540763       1.45145100      22.77120625      -0.00004706       0.00021967       0.00320286
C        5.87951565       2.01206396      19.83479081       0.00142477       0.00047692       0.00461714
C        7.08555709       2.70179451      19.56793122       0.00159904       0.00055223       0.00824982
C        6.89099200       2.93709353      22.83716632       0.00064342       0.00016337       0.00551023
C        8.21709363       3.41787167      22.87588801       0.00104157       0.00034990       0.00559148
C        7.13615028       4.11270709      19.54382562       0.00173794       0.00100538       0.00972308
C        8.34673858       4.81097884      19.35107156       0.00086115       0.00049864       0.00628337
C        8.34498639       4.81050106      22.89123590       0.00105376       0.00060942       0.00692659
C        9.54878155       5.50487590      22.83795196       0.00080004       0.00046173       0.00318233
C        8.33943962       6.22377632      19.25129603       0.00012708       0.00009155       0.00201920
C        9.52951487       6.98514332      19.18989535      -0.00024576      -0.00009723      -0.00249560
C        9.54047145       6.90688530      22.74878289       0.00020491       0.00027195      -0.00030350
C       10.75774833       7.63139383      22.67608159       0.00006807       0.00022780       0.00021271
C        6.92690482      -0.09008756      19.32444907      -0.00022899       0.00005707      -0.00018101
C        8.16353490       0.60086713      19.25173459      -0.00033319      -0.00004021       0.00035113
C        8.10081800       0.65033869      22.81068074       0.00020641       0.00016280       0.00247492
C        9.35573926       1.29929269      22.74933454      -0.00014651      -0.00006731      -0.00207096
C        8.26546559       1.99931972      19.30960543       0.00018542       0.00018824       0.00426748
C        9.50649424       2.69976813      19.21513967      -0.00030104      -0.00012257       0.00088032
C        9.41530356       2.69680322      22.78578017       0.00030003       0.00012225      -0.00089098
C       10.65633198       3.39725153      22.69130847      -0.00018596      -0.00018834      -0.00427161
C        9.56605846       4.09727878      19.25158787       0.00014545       0.00006685       0.00205783
C       10.82097919       4.74623266      19.19023278      -0.00020662      -0.00016293      -0.00247842
C       10.75826198       4.79570448      22.74916783       0.00033378       0.00004000      -0.00034291
C       11.99489181       5.48665931      22.67644937       0.00023000      -0.00005733       0.00019379
C       10.77435667       6.21126692      19.16501000      -0.00035819      -0.00020595      -0.00313819
C       11.99203398       6.91364784      19.10178585      -0.00035387      -0.00020341      -0.00220849
C       11.98679643       6.91117137      22.70187469       0.00035457       0.00020371       0.00222317
C       13.20447403       7.61355237      22.63866026       0.00035822       0.00020594       0.00314241
