62
Lattice="9.756681757488597 0.1477186271629715 -0.15533316690786914 5.012858653723024 8.371709347770093 -0.15661547569404347 -0.7831748436630179 -0.4595641602496017 48.61053059246305" Properties=species:S:1:pos:R:3:forces:R:3 energy=-490.96063498876345 stress="1.8516165365721644e-06 7.41768838864369e-08 -2.751286410277742e-07 7.41768838864369e-08 1.765720162028713e-06 -1.5920832736553267e-07 -2.751286410277742e-07 -1.5920832736553267e-07 5.208558433993602e-07" free_energy=-490.96063498876345 pbc="T T T"
C       14.39807069       8.30148727      18.32878984       0.00072682       0.00042046       0.00322611
C        0.83251440       0.47654073      18.57894864       0.00094727       0.00054802       0.00419170
C        0.83643621       0.47933909      22.07343491       0.00057589       0.00033380       0.00606266
C        2.05775084       1.18381433      21.99364473       0.00110670       0.00064136       0.01023388
C        0.95940338       1.85507328      18.60356778       0.00071051       0.00043591       0.00356942
C        2.28049969       2.33775969      18.65938814       0.00028136       0.00085971       0.00448886
C        2.09929255       2.56940182      21.91052745       0.00109280       0.00043686       0.00812792
C        3.28604405       3.25083024      21.55414817       0.00105174       0.00020849       0.00472227
C        2.29902628       3.80573998      18.75668486      -0.00055247       0.00069920       0.00360202
C        3.46436718       4.62927820      18.85395371      -0.00046378       0.00039066       0.00084474
C        3.44244611       4.61707992      21.77034105      -0.00010566       0.00059717      -0.00084908
C        4.73877651       5.21353214      21.86763928      -0.00032719       0.00082665      -0.00360010
C        3.43153904       6.03811557      18.67435439      -0.00000092       0.00046736       0.00248124
C        4.64391941       6.75939647      18.55847857       0.00024450       0.00037522       0.00122702
C        4.66562595       6.68970539      21.92574696      -0.00007129       0.00038795      -0.00198709
C        5.85022863       7.44425464      21.93502896       0.00014244       0.00025408       0.00193583
C        2.08934502      -0.10381623      18.60388040       0.00073138       0.00039801       0.00356063
C        3.16861227       0.79811019      18.65962983       0.00088338      -0.00018542       0.00448626
C        3.27797032       0.52601941      21.91083522       0.00092425       0.00073190       0.00813946
C        4.46206728       1.21205169      21.55445890       0.00070555       0.00080887       0.00472905
C        4.92436189       2.83700641      19.72039287      -0.00072336      -0.00041835      -0.00265225
C        4.26302145       2.45570787      20.90451240       0.00072382       0.00041848       0.00265262
C        4.72531629       4.08066266      19.07044629      -0.00070538      -0.00080884      -0.00472862
C        5.90941345       4.76669504      18.71407105      -0.00092439      -0.00073205      -0.00814054
C        6.01877134       4.49460421      21.96527589      -0.00088329       0.00018536      -0.00448661
C        7.09803861       5.39653056      22.02102538      -0.00073132      -0.00039800      -0.00356115
C        5.89877599       6.14608794      18.56470153      -0.00012539      -0.00006239      -0.00300482
C        7.11914048       6.87152451      18.50383900       0.00020022       0.00017763      -0.00058014
C        7.08110188       6.79289920      21.96445165      -0.00020027      -0.00017767       0.00057910
C        8.30146636       7.51833573      21.90358808       0.00012539       0.00006242       0.00300516
C        4.44860715       0.07918227      18.75726575       0.00032725      -0.00082670       0.00360071
C        5.74493753       0.67563450      18.85456312       0.00010578      -0.00059723       0.00085090
C        5.72301654       0.66343612      21.77095028       0.00046381      -0.00039057      -0.00084273
C        6.88835743       1.48697434      21.86822059       0.00055245      -0.00069916      -0.00360186
C        5.90133955       2.04188405      19.07075735      -0.00105161      -0.00020840      -0.00472221
C        7.08809137       2.72331257      18.71437964      -0.00109312      -0.00043693      -0.00812991
C        6.90688403       2.95495459      21.96551800      -0.00028142      -0.00085963      -0.00448966
C        8.22798031       3.43764102      22.02133893      -0.00071055      -0.00043587      -0.00357096
C        7.12963309       4.10890013      18.63126319      -0.00110708      -0.00064156      -0.01023705
C        8.35094767       4.81337536      18.55147358      -0.00057624      -0.00033399      -0.00606655
C        8.35486924       4.81617360      22.04595684      -0.00094721      -0.00054798      -0.00419179
C        9.55885330       5.51065499      21.98416516      -0.00072661      -0.00042034      -0.00322378
C        8.35001376       6.22016914      18.53326284      -0.00014257      -0.00025423      -0.00193823
C        9.53461642       6.97471836      18.54254323       0.00007126      -0.00038802       0.00198686
C        9.55632288       6.90502710      21.90980902      -0.00024436      -0.00037501      -0.00122397
C       10.76870325       7.62630797      21.79393271       0.00000110      -0.00046709      -0.00247741
C        6.94806088      -0.05820043      18.67529789       0.00040373      -0.00023337       0.00248814
C        8.17945401       0.63011882      18.55942379       0.00044775       0.00002482       0.00123824
C        8.12954874       0.68457698      21.92668647       0.00030046      -0.00025736      -0.00199164
C        9.37581642       1.33222286      21.93599105       0.00029012      -0.00000363       0.00192479
C        8.27683301       2.02343639      18.56532827      -0.00011420      -0.00007807      -0.00298690
C        9.51581431       2.71659893      18.50447246       0.00025573       0.00008465      -0.00056314
C        9.42825127       2.72383405      21.96510213      -0.00025596      -0.00008471       0.00056034
C       10.66723256       3.41699659      21.90424518       0.00011402       0.00007804       0.00298558
C        9.56824916       4.10821013      18.53358406      -0.00029038       0.00000356      -0.00192829
C       10.81451677       4.75585602      18.54288657      -0.00030056       0.00025733       0.00199082
C       10.76461138       4.81031419      21.91014702      -0.00044760      -0.00002482      -0.00123618
C       11.99600442       5.49863347      21.79427193      -0.00040344       0.00023336      -0.00248477
C       10.76434483       6.20548791      18.54593486       0.00002519       0.00001566       0.00308817
C       11.97200955       6.90209683      18.51128791       0.00011822       0.00006941       0.00368886
C       11.98491452       6.91004549      21.80166600      -0.00011805      -0.00006933      -0.00368495
C       13.19257930       7.60665445      21.76702117      -0.00002518      -0.00001568      -0.00308700
