62
Lattice="9.829832419552462 0.16935875258727706 -0.09346900028932686 5.068211014977495 8.424212544902367 -0.09475483625553165 -0.4687775105817086 -0.27798638509934814 51.36801347226627" Properties=species:S:1:pos:R:3:forces:R:3:energies:R:1 energy=-567.4557495117188 stress="4.612558655026078e-07 3.632884215676313e-08 1.3009356791826576e-07 3.632884215676313e-08 5.171669954506797e-07 7.610645980093977e-08 1.3009356791826576e-07 7.610645980093977e-08 -2.4475144755342626e-07" free_energy=-567.4557495117188 pbc="T T T"
C       14.64345444       8.44312310      19.43910414      -0.00077423      -0.00044014      -0.00801484      -9.30020523
C        0.94983152       0.54429026      19.59961481      -0.00070314      -0.00042138      -0.00831285      -9.09401417
C        0.98671184       0.56610661      23.20079937      -0.00079137      -0.00047912      -0.00934553      -9.28762913
C        2.19270114       1.26172473      23.00819127      -0.00114486      -0.00066543      -0.00948697      -9.17022896
C        1.08134049       1.93320368      19.65208207      -0.00047597      -0.00016332      -0.00480914      -8.80686665
C        2.41300269       2.41037928      19.73540803       0.00002672      -0.00076753      -0.00252949      -8.62125492
C        2.24395348       2.67519659      23.02038225      -0.00108732      -0.00011583      -0.00619165      -9.11124706
C        3.45019730       3.36474587      22.77140839      -0.00081716      -0.00008857      -0.00282581      -9.01101303
C        2.45859126       3.89224416      19.81184782       0.00032899      -0.00056764      -0.00017833      -9.32255268
C        3.64495422       4.72772594      19.90912193       0.00047478      -0.00034220      -0.00032729      -9.34213734
C        3.61663657       4.71187336      23.11394163       0.00006405      -0.00060378       0.00030511      -9.34213161
C        4.93383037       5.32054358      23.21123681       0.00032550      -0.00057769       0.00018848      -9.32255363
C        3.60349001       6.14179851      19.68295239      -0.00010144      -0.00057027      -0.00315103      -9.34093380
C        4.81888211       6.87072226      19.61495399      -0.00027213      -0.00070790      -0.00490512      -9.19762993
C        4.86860451       6.80795505      23.23995691      -0.00001099      -0.00034532      -0.00269043      -9.12368488
C        6.05985513       7.57368696      23.20501175      -0.00026038      -0.00039324      -0.00599711      -9.25292301
C        2.21795635      -0.03725875      19.65241366      -0.00037383      -0.00032538      -0.00483273      -8.80686474
C        3.29774001       0.87657901      19.73565448      -0.00064883       0.00040447      -0.00253211      -8.62125683
C        3.44190631       0.59839348      23.02067585      -0.00062515      -0.00089538      -0.00616739      -9.11124992
C        4.64277819       1.29725939      22.77171137      -0.00051197      -0.00067699      -0.00280841      -9.01101208
C        5.05256997       2.91106133      20.90787400       0.00043893       0.00026190       0.00156456      -8.93372536
C        4.48456507       2.58360039      22.11578988      -0.00044913      -0.00024610      -0.00154740      -8.93372536
C        4.89435740       4.19740276      20.25195143       0.00050701       0.00064731       0.00281867      -9.01101208
C        6.09522951       4.89626855      20.00299035       0.00064003       0.00093619       0.00615510      -9.11124706
C        6.23939580       4.61808267      23.28800932       0.00066024      -0.00039021       0.00253044      -8.62125492
C        7.31917975       5.53192046      23.37124956       0.00036909       0.00033879       0.00482620      -8.80686474
C        6.07860063       6.26015837      19.70543528       0.00012268      -0.00028656       0.00090776      -9.21966553
C        7.30778657       6.98844746      19.64402909      -0.00006102      -0.00014166       0.00095768      -9.38445282
C        7.29756081       6.93042690      23.28488160       0.00005223       0.00012009      -0.00097239      -9.38445282
C        8.52674655       7.65871559      23.22347313      -0.00013249       0.00026653      -0.00088675      -9.21966648
C        4.60330566       0.17411841      19.81242640      -0.00033936       0.00057253      -0.00017576      -9.32255459
C        5.92049913       0.78278890      19.90971985      -0.00004253       0.00060220      -0.00029674      -9.34213257
C        5.89218210       0.76693595      23.11453893      -0.00048026       0.00033333       0.00032495      -9.34213829
C        7.07854472       1.60241764      23.21181580      -0.00032212       0.00057027       0.00019998      -9.32255363
C        6.08693864       2.12991565      20.25225588       0.00081992       0.00008099       0.00280361      -9.01101398
C        7.29318281       2.81946506      20.00328613       0.00110800       0.00010495       0.00620081      -9.11124706
C        7.12413335       3.08428242      23.28825707      -0.00002022       0.00076771       0.00250706      -8.62125397
C        8.45579552       3.56145818      23.37158383       0.00048694       0.00015715       0.00480704      -8.80686474
C        7.34443514       4.23293744      20.01547919       0.00114684       0.00066748       0.00946243      -9.17022896
C        8.55042458       4.92855548      19.82287264       0.00081325       0.00047301       0.00933982      -9.28762627
C        8.58730438       4.95037158      23.42404746       0.00074033       0.00041437       0.00832291      -9.09401512
C        9.79172487       5.64511009      23.39633112       0.00075126       0.00042755       0.00801012      -9.30020523
C        8.54549187       6.34518752      19.72390254       0.00027533       0.00038316       0.00601310      -9.25292301
C        9.73674259       7.11091934      19.68895377       0.00000574       0.00032635       0.00267254      -9.12368393
C        9.78646504       7.04815169      23.31394912       0.00030768       0.00070759       0.00490953      -9.19762993
C       11.00185668       7.77707544      23.24595012       0.00012351       0.00057624       0.00314668      -9.34093285
C        7.12383613       0.03884598      19.68388530      -0.00052126       0.00017325      -0.00314100      -9.34093380
C        8.36334566       0.72595784      19.61588259      -0.00078148       0.00010454      -0.00487809      -9.19762611
C        8.33343581       0.80124570      23.24090016      -0.00029835       0.00015138      -0.00269341      -9.12368298
C        9.59271908       1.44903657      23.20599014      -0.00049812      -0.00003546      -0.00602056      -9.25292397
C        8.46552248       2.12213105      19.70603663      -0.00016253       0.00022071       0.00091922      -9.21967125
C        9.71139137       2.82150060      19.64463814      -0.00014339       0.00002627       0.00101057      -9.38445282
C        9.65557733       2.84251994      23.28556275       0.00012042      -0.00001444      -0.00100835      -9.38445282
C       10.90144592       3.54188953      23.22416117       0.00015143      -0.00020558      -0.00093344      -9.21967220
C        9.77424967       4.21498411      19.72421216       0.00045048       0.00004469       0.00600846      -9.25292397
C       11.03353247       4.86277504      19.68929750       0.00031502      -0.00013946       0.00269867      -9.12368393
C       11.00362276       4.93806307      23.31430909       0.00071743      -0.00011638       0.00489712      -9.19762802
C       12.24313203       5.62517500      23.24630441       0.00056261      -0.00016086       0.00314605      -9.34093475
C       10.98829842       6.33476372      19.66804908       0.00012618       0.00006856       0.00152102      -9.20793247
C       12.20075040       7.03412263      19.56461510      -0.00042272      -0.00020489      -0.00270537      -9.26539803
C       12.23442923       7.05411036      23.27081888       0.00037354       0.00021403       0.00271988      -9.26539707
C       13.44688092       7.75346945      23.16739012      -0.00013122      -0.00005612      -0.00152928      -9.20793438
