62
Lattice="9.855921657442687 0.16970927300754848 -0.3010198499617137 5.081594244016685 8.446581098548293 -0.3023325972906152 -1.5187360307847124 -0.8841616380135471 47.61621054800771" Properties=species:S:1:pos:R:3:forces:R:3 energy=-484.81031986999983 stress="2.1826452522197507e-06 1.2368364232001544e-07 2.1430657157485873e-07 1.2368364232001544e-07 2.040175491042545e-06 1.2235049337175434e-07 2.1430657157485873e-07 1.2235049337175434e-07 -3.203707667864378e-07" free_energy=-484.81031986999983 pbc="T T T"
C       14.26626325       8.22530461      17.64799248      -0.00057956      -0.00033342       0.00459127
C        0.53689256       0.30589180      18.15400641      -0.00141403      -0.00081705      -0.00264432
C        0.50217495       0.28638370      21.55998885       0.00021518       0.00012512       0.00488549
C        1.72939150       0.99425106      21.39898426      -0.00163306      -0.00094308      -0.00652777
C        0.67022413       1.69540551      18.16189695      -0.00107798      -0.00099429      -0.00666093
C        2.02732761       2.15586047      18.18218339      -0.00030205      -0.00185621      -0.00683738
C        1.77411896       2.40093703      21.32269760      -0.00176159      -0.00098071      -0.00860626
C        2.97774621       3.07317990      20.98456021      -0.00253974      -0.00125872      -0.00857075
C        2.05766706       3.67196905      18.24941649       0.00059373      -0.00132233      -0.00380538
C        3.24522420       4.49785155      18.33160674       0.00097190      -0.00016530       0.00519079
C        3.15991525       4.44908913      21.26320829      -0.00034273      -0.00093051      -0.00518617
C        4.46939666       5.06359903      21.34541026       0.00085034      -0.00117961       0.00383541
C        3.20355320       5.92371975      18.15912065       0.00052273       0.00008720       0.00795207
C        4.42431406       6.65844196      18.04137559       0.00023472      -0.00000676       0.00798788
C        4.40267279       6.55584546      21.35363703       0.00088144      -0.00010985       0.00860608
C        5.59586869       7.32212558      21.30858143       0.00069083       0.00038187       0.00997573
C        1.80645750      -0.27438926      18.16225684      -0.00140459      -0.00044336      -0.00673754
C        2.88451096       0.66982671      18.18243853      -0.00175852       0.00066487      -0.00687528
C        2.96946308       0.32864647      21.32297574      -0.00172011      -0.00102689      -0.00854631
C        4.15405589       1.03389163      20.98485272      -0.00235545      -0.00156314      -0.00854110
C        4.72448704       2.72158218      19.25113986       0.00239437       0.00138193       0.00496651
C        3.95699177       2.27903465      20.34428323      -0.00239081      -0.00138053      -0.00496011
C        4.52742506       3.96672591      18.61057071       0.00235752       0.00156379       0.00854772
C        5.71201989       4.67197232      18.27245832       0.00171919       0.00102573       0.00853931
C        5.79697156       4.33079169      21.41299245       0.00175927      -0.00066574       0.00687175
C        6.87502565       5.27500788      21.43318069       0.00140409       0.00044267       0.00672859
C        5.69282993       6.05168515      18.06300853       0.00040656       0.00015497       0.00470558
C        6.92080006       6.77681027      17.96046502      -0.00063250      -0.00031190      -0.00479498
C        6.84227768       6.67038965      21.33264149       0.00063113       0.00031070       0.00478263
C        8.07024762       7.39551461      21.23009202      -0.00040719      -0.00015544      -0.00470778
C        4.21208568      -0.06298065      18.25001378      -0.00084915       0.00117941      -0.00382917
C        5.52156700       0.55152964      18.33221163       0.00034422       0.00093015       0.00520029
C        5.43625841       0.50276634      21.26381198      -0.00097124       0.00016655      -0.00517554
C        6.62381540       1.32864896      21.34600965      -0.00059335       0.00132331       0.00380989
C        5.70373468       1.92743764      18.61086490       0.00254166       0.00125982       0.00857601
C        6.90736500       2.59968162      18.27274172       0.00175940       0.00098003       0.00859454
C        6.65415546       2.84475741      21.41325094       0.00030118       0.00185736       0.00683098
C        8.01125969       3.30521288      21.43354783       0.00107632       0.00099406       0.00664572
C        6.95209235       4.00636789      18.19645967       0.00163043       0.00094158       0.00650776
C        8.17930910       4.71423527      18.03545848      -0.00021828      -0.00012679      -0.00490999
C        8.14459076       4.69472678      21.44143468       0.00141349       0.00081679       0.00263605
C        9.35273546       5.39160409      21.34408541       0.00058101       0.00033423      -0.00458079
C        8.16720888       6.12507412      17.98452661      -0.00069231      -0.00038297      -0.00999230
C        9.36040424       6.89135400      17.93945825      -0.00088120       0.00010952      -0.00860452
C        9.33876301       6.78875712      21.25171462      -0.00023344       0.00000817      -0.00797079
C       10.55952348       7.52347919      21.13396141      -0.00052083      -0.00008529      -0.00792633
C        6.73500528      -0.19848446      18.16007212       0.00033716       0.00041702       0.00796635
C        7.98222657       0.49036311      18.04231814       0.00011707       0.00021257       0.00803009
C        7.88214731       0.52375768      21.35461915       0.00034274       0.00081532       0.00856070
C        9.14288140       1.17295568      21.30961326       0.00066635       0.00040689       0.00988952
C        8.09211047       1.89222918      18.06360719       0.00035047       0.00027936       0.00478691
C        9.33463592       2.59212389      17.96105841      -0.00057007      -0.00039025      -0.00468616
C        9.20277043       2.57820403      21.33337186       0.00056690       0.00038941       0.00466397
C       10.44529570       3.27809879      21.23081601      -0.00035258      -0.00027999      -0.00479809
C        9.39452399       3.99737228      17.98481408      -0.00066876      -0.00040780      -0.00991174
C       10.65525725       4.64657003      17.93979206      -0.00034317      -0.00081513      -0.00856185
C       10.55517807       4.67996487      21.25209076      -0.00011585      -0.00021249      -0.00801841
C       11.80239868       5.36881237      21.13432521      -0.00033475      -0.00041668      -0.00794296
C       10.60771078       6.11498605      17.91925284      -0.00052268      -0.00029946      -0.00530147
C       11.83016476       6.82012300      17.85309857       0.00016662       0.00010042       0.00476336
C       11.78883348       6.79678562      21.13896043      -0.00016414      -0.00009914      -0.00473275
C       13.01128781       7.50192268      21.07281470       0.00052367       0.00029998       0.00531598
