62
Lattice="9.831746971202232 0.1549213990993703 -0.0123016229689148 5.056664566772977 8.43319270812432 -0.0130999294414985 -0.0617916203604761 -0.0404358425619197 49.95911363715654" Properties=species:S:1:pos:R:3:forces:R:3:energies:R:1 energy=-567.3925170898438 stress="-0.0008480575634166598 -0.000291606382234022 0.00014708626258652657 -0.000291606382234022 -0.000509008823428303 8.636937127448618e-05 0.00014708626258652657 8.636937127448618e-05 -0.00045111236977390945" free_energy=-567.3925170898438 pbc="T T T"
C       14.79633836       8.53251588      19.12525284      -0.03681974      -0.02208458      -0.03693011      -9.29336834
C        1.11050644       0.63805998      19.12292762      -0.04346453      -0.02403561      -0.05502870      -9.10521698
C        1.17427276       0.67559213      22.62768815       0.02226299       0.01322111      -0.03152347      -9.29831028
C        2.38362707       1.37317788      22.46983152      -0.05826017      -0.03403698      -0.01267211      -9.17927742
C        1.23730538       2.02715863      19.15395903       0.04266903       0.02377561      -0.00654284      -8.82355118
C        2.56668915       2.50607833      19.22711430       0.02285351       0.06983513       0.01903071      -8.60379887
C        2.42942957       2.78496677      22.47416446       0.03051737       0.02458420      -0.02320976      -9.11552715
C        3.63501521       3.47468315      22.23217653      -0.00289651      -0.00773340      -0.01190272      -8.99903011
C        2.60598376       3.99000437      19.30455791       0.03281775       0.05297005      -0.02236732      -9.30620193
C        3.79054381       4.82611225      19.40957923       0.01478158       0.01713226      -0.01877452      -9.34939480
C        3.79501162       4.82937051      22.53864864      -0.02205953      -0.00476667       0.01865544      -9.34933186
C        5.11182127       5.43619545      22.64364793      -0.06226251      -0.00205126       0.02251463      -9.30618000
C        3.75196107       6.24609084      19.23465644      -0.00657487      -0.03703030      -0.03697889      -9.33577538
C        4.96914370       6.97505359      19.19455608      -0.02966826      -0.05329380      -0.09501001      -9.19980431
C        5.04476072       6.92503088      22.68104060      -0.01586694      -0.02507637       0.02708676      -9.12600613
C        6.23599653       7.69042837      22.68255719      -0.00008959      -0.06406206      -0.00058098      -9.25771713
C        2.37640914       0.05235363      19.15444622       0.04304252       0.02451786      -0.00676264      -8.82356930
C        3.45657662       0.96333270      19.22741673       0.07157120      -0.01516676       0.01882397      -8.60381699
C        3.62861415       0.70590867      22.47419820       0.03671305       0.01430893      -0.02294492      -9.11557293
C        4.82931348       1.40414312      22.23242935      -0.00838062       0.00131503      -0.01210213      -8.99887276
C        5.20650528       3.00097693      20.36370463       0.04189695       0.02422583      -0.04339537      -8.89176559
C        4.66607568       2.68959026      21.58502503      -0.04186761      -0.02422394       0.04325283      -8.89178467
C        5.04326881       4.28642569      19.71628528       0.00823022      -0.00144759       0.01214344      -8.99887657
C        6.24396984       4.98465689      19.47454908      -0.03668231      -0.01403008       0.02290093      -9.11556053
C        6.41600265       4.72723200      22.72134473      -0.07138953       0.01529483      -0.01890662      -8.60380173
C        7.49617578       5.63821431      22.79431809      -0.04323571      -0.02471185       0.00669958      -8.82356358
C        6.22835952       6.35879687      19.23883464      -0.01866091       0.03754665      -0.01021169      -9.21558094
C        7.45733351       7.08527401      19.19225178       0.00899965      -0.03880015      -0.00913017      -9.39437389
C        7.47191690       7.03848368      22.74341016      -0.00905590       0.03889615       0.00909232      -9.39438057
C        8.70089006       7.76496053      22.69678203       0.01870829      -0.03765171       0.01021217      -9.21557331
C        4.76076130       0.25437145      19.30506908       0.06226090       0.00209345      -0.02249361      -9.30617142
C        6.07757151       0.86120141      19.41002763       0.02205861       0.00479048      -0.01859622      -9.34933376
C        6.08204459       0.86445069      22.53909177      -0.01477349      -0.01711411       0.01888136      -9.34939957
C        7.26659967       1.70056070      22.64416453      -0.03278799      -0.05299029       0.02235869      -9.30621243
C        6.23756920       2.21588077      19.71654548       0.00264702       0.00767687       0.01199915      -8.99903584
C        7.44315526       2.90559995      19.47459930      -0.03027265      -0.02466705       0.02310695      -9.11551571
C        7.30589206       3.18448416      22.72165565      -0.02267766      -0.06974176      -0.01909572      -8.60378265
C        8.63528014       3.66340736      22.79482444      -0.04291970      -0.02390072       0.00643828      -8.82354736
C        7.48895772       4.31738909      19.47896304       0.05846183       0.03416137       0.01257127      -9.17927265
C        8.69831726       5.01497699      19.32111501      -0.02253801      -0.01329176       0.03148866      -9.29830456
C        8.76207725       5.05250540      22.82582086       0.04328163       0.02398309       0.05497050      -9.10524464
C        9.96464959       5.74616010      22.79800593       0.03740056       0.02238457       0.03696889      -9.29334545
C        8.69325120       6.43333182      19.25312246       0.00024253       0.06401768       0.00052974      -9.25771618
C        9.88448983       7.19872962      19.25459078       0.01575157       0.02503828      -0.02708025      -9.12601185
C        9.96010710       7.14870428      22.74097779       0.02944884       0.05289689       0.09516103      -9.19980049
C       11.17728625       7.87766065      22.70085520       0.00680675       0.03713845       0.03705164      -9.33578205
C        7.28742898       0.11683194      19.23520232      -0.03510042       0.01235783      -0.03690052      -9.33583546
C        8.52786025       0.80547265      19.19492207      -0.06140567       0.00209042      -0.09462973      -9.19981861
C        8.52180279       0.89709738      22.68177899      -0.02975511      -0.00140920       0.02694394      -9.12594700
C        9.78078091       1.54505492      22.68343187      -0.05490613       0.03192984      -0.00081748      -9.25771999
C        8.62484515       2.20406959      19.23885988       0.02306318      -0.03553093      -0.00965677      -9.21565151
C        9.86905619       2.90415490      19.19221352      -0.02916372       0.02795742      -0.00865555      -9.39438820
C        9.83527668       2.94133357      22.74427578       0.02921797      -0.02803364       0.00859285      -9.39439392
C       11.07948702       3.64141916      22.69758317      -0.02309191       0.03554257       0.00965613      -9.21564674
C        9.92355100       4.30043185      19.25306335       0.05505331      -0.03181379       0.00076945      -9.25772095
C       11.18253062       4.94839109      19.25465865       0.02963944       0.00138824      -0.02695444      -9.12594891
C       11.17647175       5.04001651      22.74142774       0.06092884      -0.00202930       0.09476138      -9.19981384
C       12.41689527       5.72865898      22.70111578       0.03535212      -0.01225415       0.03698149      -9.33584309
C       11.13724143       6.42181665      19.25361848      -0.00072879      -0.00042768      -0.02091293      -9.20510387
C       12.35207798       7.12258792      19.19741021       0.00635447       0.00382050      -0.08478068      -9.26977444
C       12.40891743       7.15609274      22.72579403      -0.00650176      -0.00389647       0.08496913      -9.26977158
C       13.62375488       7.85686440      22.66966551       0.00082460       0.00041357       0.02093539      -9.20511532
