ITEM: TIMESTEP
10118
ITEM: NUMBER OF ATOMS
62
ITEM: BOX BOUNDS xy xz yz pp pp pp
-2.9500931756195317e+00 1.4910788346913225e+01 5.1810937242256054e+00
-1.4758547506173529e+00 8.2326469404293476e+00 -3.0533737118318856e+00
-2.5864844461439271e+00 5.2545434040344226e+01 -1.5956870920880388e+00
ITEM: ATOMS id type x y z fx fy fz
1 1 13.6572 7.57784 18.2388 -5.55741e-06 -9.57272e-06 -8.10383e-06
2 1 0.063945 0.130264 18.154 -4.00491e-06 -7.38341e-06 -9.46395e-06
3 1 -0.122147 0.0290231 22.0906 -3.40412e-06 -6.63696e-06 -1.07138e-05
4 1 1.09695 0.696934 21.9343 -2.84515e-06 -5.90226e-06 -1.19587e-05
5 1 9.82108 1.49544 18.3266 -3.121e-06 -1.66615e-06 -3.76471e-05
6 1 1.58212 1.92218 18.5105 1.36234e-06 3.29388e-06 -2.84312e-05
7 1 1.16388 2.08219 21.9627 -6.63531e-06 -5.41161e-06 -1.75874e-06
8 1 2.37939 2.73555 21.7148 -4.00792e-06 -7.00906e-06 -2.09074e-06
9 1 1.65242 3.37188 18.6989 -3.35776e-06 2.27975e-06 4.68418e-06
10 1 2.82971 4.13373 18.8791 1.58561e-06 -2.899e-08 6.18872e-06
11 1 2.58539 4.00073 22.258 -1.11815e-06 -5.7558e-06 5.07911e-06
12 1 3.86114 4.58296 22.4382 -1.53411e-06 1.16319e-06 8.21255e-06
13 1 2.81005 5.52057 18.6051 -2.53017e-06 -2.57954e-06 4.76062e-06
14 1 4.01836 6.21116 18.4633 9.47255e-08 -7.21133e-06 6.76805e-06
15 1 3.85013 6.04242 22.4012 -2.64415e-06 -1.77461e-06 -4.73943e-06
16 1 5.04169 6.767 22.2867 1.47749e-06 -7.14474e-06 -1.64691e-05
17 1 6.46648 7.61809 18.3225 -9.621e-06 -3.08955e-06 2.59659e-05
18 1 2.39199 0.445069 18.5075 -5.04491e-06 -9.66064e-06 1.66569e-05
19 1 2.30047 0.00782065 21.9639 -3.45252e-06 -3.60794e-06 -1.95622e-05
20 1 3.50536 0.680442 21.7155 -7.49219e-07 -8.26546e-06 -1.64616e-05
21 1 4.12464 2.35528 20.0185 6.96367e-06 6.57497e-06 6.43183e-06
22 1 3.38762 1.95175 21.1193 -6.6134e-06 -7.21999e-06 -6.43363e-06
23 1 4.00692 3.62657 19.4223 7.80254e-07 7.91279e-06 1.71653e-05
24 1 5.21181 4.29918 19.1739 3.48018e-06 3.46134e-06 2.09919e-05
25 1 5.12032 3.86192 22.6302 4.50475e-06 9.71138e-06 -1.32678e-05
26 1 6.22691 4.80171 22.8152 9.25259e-06 3.28615e-06 -2.14508e-05
27 1 5.2312 5.61088 18.7522 -2.82813e-06 1.34181e-06 2.39818e-05
28 1 6.44617 6.28227 18.6392 -3.72638e-06 1.58206e-06 3.03186e-05
29 1 6.24722 6.13752 22.4984 3.51634e-06 -1.2587e-06 -2.61536e-05
30 1 7.46219 6.80891 22.3855 2.6615e-06 -1.01381e-06 -2.08323e-05
31 1 3.65113 -0.275971 18.6996 1.6266e-06 -1.05686e-06 -8.90449e-06
32 1 4.92688 0.306274 18.8799 1.23604e-06 5.67215e-06 -5.85676e-06
33 1 4.68257 0.173275 22.2587 -1.56339e-06 -1.22166e-07 -5.40208e-06
34 1 5.85986 0.935112 22.4389 3.22443e-06 -2.318e-06 -3.86911e-06
35 1 5.13288 1.57145 19.4231 4.29749e-06 6.80124e-06 1.39933e-06
36 1 6.34839 2.22481 19.1752 6.74975e-06 5.31584e-06 3.43085e-07
37 1 5.93015 2.38479 22.6275 -1.15657e-06 -2.81152e-06 2.49802e-05
38 1 7.31762 2.81153 22.8114 3.12097e-06 2.10422e-06 3.29906e-05
39 1 6.41533 3.61007 19.2035 2.92452e-06 5.76975e-06 1.19715e-05
40 1 7.63442 4.27798 19.0473 3.50937e-06 6.46012e-06 1.07411e-05
41 1 7.44833 4.17674 22.9839 4.1382e-06 7.11228e-06 9.41711e-06
42 1 8.66259 4.84198 22.899 5.69907e-06 9.29258e-06 8.07398e-06
43 1 7.65169 5.65281 18.851 -1.42181e-06 7.19842e-06 1.81891e-05
44 1 8.84325 6.37739 18.7366 2.60346e-06 1.82718e-06 5.11297e-06
45 1 8.67501 6.20865 22.6745 -4.68221e-08 7.21104e-06 -5.02313e-06
46 1 9.88332 6.89924 22.5327 2.55737e-06 2.49469e-06 -3.67424e-06
47 1 6.08523 -0.45669 18.6061 -3.55617e-06 -1.1869e-06 -1.20751e-05
48 1 7.31768 0.18991 18.4648 -2.70964e-06 -1.94676e-06 -1.71293e-05
49 1 7.08411 0.140408 22.401 7.84588e-07 -3.98462e-06 -1.92535e-06
50 1 8.3361 0.754538 22.2854 1.3723e-06 -2.04846e-06 1.81309e-06
51 1 7.46462 1.53484 18.755 -1.75355e-06 1.30567e-06 -1.87276e-05
52 1 8.68442 2.19732 18.6429 -2.50301e-08 2.91005e-06 -2.62553e-05
53 1 8.45428 2.10966 22.4951 -1.43364e-07 -2.54847e-06 2.20607e-05
54 1 9.67408 2.77214 22.383 1.56364e-06 -9.8031e-07 1.5561e-05
55 1 8.8026 3.55246 18.8525 -1.43596e-06 2.03475e-06 -3.48498e-06
56 1 10.0546 4.16658 18.7369 -7.90719e-07 4.05295e-06 1.62661e-06
57 1 9.82101 4.11709 22.6731 2.67575e-06 1.91489e-06 1.53557e-05
58 1 11.0535 4.76369 22.5318 3.60894e-06 1.12785e-06 1.09856e-05
59 1 10.0349 5.59303 18.678 -6.64901e-07 1.2905e-06 2.71197e-06
60 1 11.2518 6.25981 18.6192 1.31702e-06 -8.45878e-07 -3.29766e-06
61 1 11.068 6.16 22.5186 -1.27729e-06 7.88956e-07 3.30907e-06
62 1 12.2849 6.82677 22.4599 6.5195e-07 -1.24924e-06 -2.68446e-06
