units           metal
atom_style      atomic
boundary        p p p
processors		  * * 1
read_data		    AB1.data
Reading data file ...
  triclinic box = (0 0 0) to (9.8329752 8.3524793 49.95895) with tilt (5.1889168 -0.12492273 -0.078983728)
WARNING: Triclinic box skew is large. LAMMPS will run inefficiently. (src/domain.cpp:220)
  1 by 1 by 1 MPI processor grid
  reading atoms ...
  62 atoms
  read_data CPU = 0.003 seconds
mass            1 12.011

# Define potentials
pair_style      airebo 3.0
pair_coeff      * * CH.airebo C
Reading airebo potential file CH.airebo with DATE: 2011-10-25


# Variable
variable        thermofrq equal 10
variable        Nloop equal 100     # number of loop to run
variable        binding equal pe


# Output
thermo          ${thermofrq}
thermo          10
thermo_style    custom step temp pe lx ly lz pxx pyy pzz fmax fnorm
thermo_modify   line one format float %20.16g
thermo_modify   flush yes norm no lost warn

# Minimize the system in loops
timestep        1.0e-3
variable        nr loop ${Nloop}
variable        nr loop 100
label           loopmin

# Minimize the with cg + box/relax
  fix             frb all box/relax tri 0.0 couple none
  min_style       cg
  min_modify      line quadratic
  minimize        0.0 1.0e-3 10000 10000
Neighbor list info ...
  update: every = 1 steps, delay = 0 steps, check = yes
  max neighbors/atom: 2000, page size: 100000
  master list distance cutoff = 12.2
  ghost atom cutoff = 12.2
  binsize = 6.1, bins = 3 2 9
  1 neighbor lists, perpetual/occasional/extra = 1 0 0
  (1) pair airebo, perpetual
      attributes: full, newton on, ghost
      pair build: full/bin/ghost
      stencil: full/ghost/bin/3d
      bin: standard
WARNING: Energy due to 6 extra global DOFs will be included in minimizer energies
 (src/min.cpp:225)
Per MPI rank memory allocation (min/avg/max) = 5.045 | 5.045 | 5.045 Mbytes
   Step          Temp          PotEng           Lx             Ly             Lz            Pxx            Pyy            Pzz            Fmax          Fnorm     
         0                     0   -450.6568323458803         9.8329751589    8.352479281900001        49.9589495942   -22198.02330274459   -29621.27510755083     597.136143415543    5.212349422726898    14.21518197465509
        10                     0    -450.785325088292    9.825588197918107    8.344126802618099    49.96000894109774   -21006.14713223212   -27871.25440209399    628.8079394175926    4.947058136611668    13.79275488559894
        20                     0     -450.90576734719    9.818160653833866    8.335774323336198    49.96119471508158   -19803.94477419104   -26126.83077058057    661.3568884038085    4.703395453280565    13.42081839343965
        30                     0   -451.0182535797553    9.810693657257971    8.327421844054296    49.96252484502175   -18594.60891754237   -24400.63276469827    694.3025792616604    4.490557694905003    13.11093724490119
        40                     0   -451.1229008155131    9.803189713305047    8.319069364772394    49.96402012953369   -17377.89447927154   -22691.01852677147    727.6100612774586    4.306936789123275    12.85647642319488
        50                     0     -451.21982759607    9.795651515543268    8.310716885490493    49.96570591632889   -16153.50960012811   -20996.02075093182    761.2365273042144    4.150657210855367    12.65073360374124
        60                     0    -451.309155821635    9.788081891137061    8.302364406208591    49.96761359448088   -14921.11716385156     -19313.411565979    795.1280865949039    4.019626100963441    12.48716190621038
        70                     0   -451.3910137825947    9.780483744762943    8.294011926926689    49.96978275827421   -13680.37075520264   -17640.76414845573     829.215501217628    3.911582053912063     12.3594845786855
        80                     0   -451.4655409778018    9.772859985531323    8.285659447644788    49.97226444091991   -12430.92378740824   -15975.51964244583    863.4110256096511    3.824141329326627    12.26176844380588
        90                     0   -451.5328954219542    9.765213449204026    8.277306968362886    49.97512612454378   -11172.42997155212    -14315.0759935908    897.5988799381935    3.754851866700399    12.18841433870625
       100                     0   -451.5932650657593    9.757546839587086    8.268954489080985    49.97845981845704    -9904.55457953788   -12656.87693360504    931.6209272965168    3.701199890691908    12.13408598491296
       110                     0   -451.6468865514635      9.7498626344904    8.260602009799081    49.98239580510644   -8627.045149768897   -10998.46888951885    965.2535123999454    3.660647767101258    12.09356823467053
       120                     0   -451.6940777396699    9.742162931093317    8.252249530517179    49.98712762000309   -7339.770305048116   -9337.606241542584    998.1658350665689    3.630659506484536    12.06150571493378
       130                     0   -451.7352989738886    9.734449208336596    8.243897051235278    49.99296147957106   -6042.798778866612   -7672.411740829124    1029.837332944572    3.608666397976672    12.03191768209141
       140                     0   -451.7712833168067    9.726721845794469    8.235544571953376    50.00042607338398   -4736.594851676655   -6001.638772160232    1059.373083801268    3.591960697983083    11.99717179668113
       150                     0    -451.803364716978    9.718978856881554    8.227192092671475    50.01056095493439   -3422.481453926136   -4325.227031827051    1085.023017600578    3.577339656849179    11.94533895397227
       160                     0   -451.8345664580821     9.71121121044551    8.218839613389573    50.02591047559767   -2104.171500139161   -2645.959643248294    1102.524548196942    3.559707942846766    11.85105707896297
       170                     0   -451.8751819042034    9.703481689731641    8.210605616504663    50.05589288179107   -814.4264790650926    -1001.00655406817    1095.596425071854     3.52344003444737    11.62447714708377
       180                     0   -451.9283081145917    9.699365570435823    8.206458137585477    50.10443309001143   -200.4591102202969   -205.3087680974745    1037.330032968093    3.448909956361244    11.19195671007605
       190                     0    -451.979675190771    9.698041224364315    8.205508245080226    50.15439203960564   -87.01983329159211     -45.398133536677    961.6055865347814     3.35175519676194    10.70354862389787
       200                     0   -452.0297588632475    9.697229471810081    8.205272238101529    50.20435098919985   -66.15772279305143   -10.02657170175894    884.3501214125396    3.236005951901472    10.18783780327214
       210                     0     -452.07877742234     9.69649461111036    8.205239384656517    50.25430993879406   -58.24869836146029    3.283225721845609    808.4998382276302    3.102363452766751    9.649647811307338
       220                     0   -452.1266154982065    9.695779423674672    8.205322390461205    50.30426888838826   -51.64046535018707    12.13553439094432    734.6829991446085    2.950124475963383    9.089633465047394
       230                     0   -452.1730687296798    9.695082147687449    8.205512536339752    50.35422783798247   -45.28844069895306    19.41420030386312    663.1308275147178    2.778016806203825      8.5072290932039
       240                     0    -452.217885908578    9.694404819772075     8.20581498276789    50.40418678757668   -39.32883479598298    25.37108856752625    594.0462715902993    2.584981945677989      7.9024223745888
       250                     0   -452.2607827034134    9.693747348644626    8.206234159276301    50.45414573717088   -33.91172170624976    29.71071876725166    527.6905924358726    2.370815497912389    7.277044486436299
       260                     0   -452.3014588097963    9.693107016351252    8.206768175958416    50.50410468676509   -29.14728499923524    32.08425355511014    464.4231110930225    2.136684789378209    6.635874742084418
       270                     0   -452.3396246664963    9.692478026063114    8.207405274119925     50.5540636363593   -25.09823478198565    32.25950108459998    404.7351843593017    1.885678676385543    5.987616341446941
       280                     0   -452.3750378920037    9.691851300960435    8.208120894189213     50.6040225859535   -21.77298858505615    30.22554025341479    349.2812465453237    1.643036757222348    5.345560920983571
       290                     0   -452.4075450463129    9.691214815645711    8.208875758245849    50.65398153554771   -19.11879982145275    26.25347592478041    298.8941084015595    1.427456336574834    4.727508633282969
       300                     0   -452.4371170766729    9.690555165674642    8.209616127479929    50.70394048514191   -17.02276379320848    20.90577204931117    254.5520310028757     1.21534824864176    4.154185917700849
       310                     0   -452.4638585694189    9.689861129205884     8.21027858852937    50.75389943473612   -15.32891287812092    14.97267474625265    217.2398387426461    1.014763222892604    3.645398190984253
       320                     0   -452.4879719353362    9.689129207834073    8.210802084296633    50.80385838433033   -13.87644618908791      9.3108340161375    187.6456086552627   0.8340196140132303    3.214312434034642
       330                     0   -452.5096862009323      9.6883685922196    8.211146267202459    50.85381733392453   -12.54599637845112    4.606769358669124    165.7477710329032   0.7086979005408548    2.862850273232117
       340                     0   -452.5292046535489    9.687600443100845    8.211306282978446    50.90377628351874   -11.28962598051115    1.176762524433064    150.5743690603832   0.6734060022382607    2.582193687595079
       350                     0   -452.5467153124923    9.686849565352791    8.211310632611843    50.95373523311294   -10.11686872004977   -1.047170845162276    140.4457444378006    0.641138152652074    2.358201154821905
       360                     0   -452.5624283790262     9.68613459933778     8.21120312788584    51.00369418270716   -9.058443586530185   -2.346364322453737    133.5679674271764    0.612155969314937    2.176909299899455
       370                     0   -452.5765818810269    9.685464112775968    8.211024715311762    51.05365313230136   -8.128315938213941   -3.032801980749273    128.5099156856965   0.5862008816792308    2.027075574576281
       380                     0   -452.5894163758136    9.684838846880512    8.210805207054063    51.10361208189557   -7.324512473564153   -3.348106389946186    124.3372830531988   0.5627631807653094    1.900410163078366
       390                     0   -452.6011490463873    9.684255196313137    8.210563527498353    51.15357103148978   -6.634276241023154   -3.450869661239643    120.5231137285627   0.5412942624470755    1.790988780495745
       400                     0   -452.6119617770508    9.683707972586896    8.210310761483459    51.20352998108398   -6.041123280688365       -3.43599633203    116.8060574063081   0.5213114654077332     1.69462260193502
       410                     0   -452.6220007156483    9.683191921278103    8.210053081945855    51.25348893067819   -5.527629447733883   -3.358982503851626    113.0765268050379   0.5024295651217976    1.608346763338278
       420                     0   -452.6313811326413     9.68270239883697    8.209793732373347    51.30344788027239   -5.079041872352752   -3.251071431878859     109.303117139723   0.4843575879046762    1.530045204575699
       430                     0   -452.6401935446884    9.682235524262643    8.209534324155992     51.3534068298666   -4.683171160247164   -3.129277729511732    105.4920756426037   0.4668840020327901    1.458189421976305
       440                     0   -452.6485093116218    9.681788140568717    8.209275565641972    51.40336577946081   -4.330471923737639   -3.003072327034935    101.6628799214406   0.4498600933805246    1.391656044838228
       450                     0    -452.656385280879    9.681357707542901    8.209017672965004    51.45332472905501   -4.013418426917853   -2.877433192221864    97.83736415626201   0.4331848037170173    1.329601642079293
       460                     0   -452.6638673296395    9.680942183721941    8.208760601453905    51.50328367864922     -3.7261709431872   -2.754916086199604    94.03493218835133   0.4167924509454231    1.271378121742376
       470                     0   -452.6709930069155    9.680539916639269     8.20850417202756    51.55324262824342   -3.464189147229188   -2.636691282241879    90.27084413051318   0.4006430942411234    1.216475319975764
       480                     0   -452.6777934996629     9.68014955000616    8.208248140903784    51.60320157783763   -3.223916389190894   -2.523135068700818    86.55614318446754   0.3847151560626993    1.164482073221814
       490                     0   -452.6842950611336    9.679769948384894    8.207992237204696    51.65316052743184   -3.002383964054118   -2.413869048292362    82.89831494337437   0.3689998805068114    1.115059875137799
       500                     0   -452.6905200669515      9.6794001146668     8.20773614562029    51.70311947702604   -2.792549975270008   -2.299689624587735    79.30231969395037   0.3534972564198677    1.067925187333481
       510                     0   -452.6964878246434    9.679037903184836    8.207477555786598    51.75307842662025   -2.353480484823333   -1.735926938254722    75.78060235831323   0.3382136700292123    1.022842652475087
       520                     0   -452.7022151979451    9.678552470185007    8.207010499751554    51.80303737621446    22.37542848677588    43.99437098593853     73.2966732842339   0.3232129904153251   0.9802252624187489
       530                     0   -452.7076853732754    9.678079735865122    8.206548148068348    51.85275190147676    46.48304807655943     88.6405387950134    70.85097039325841   0.3084506198203594   0.9395485747681066
       540                     0   -452.7129036792475    9.677757275257941    8.206307509167003    51.90200353672907     44.7443280907063    85.25215420027276    67.44157378053255   0.2939418732989277   0.8998219160727947
       550                     0   -452.7178352323948    9.677439654800839    8.206057306467294    51.95032790135441    44.46997351024651    84.60558430494982    64.20333412732225   0.2799141480826584   0.8621301937052364
       560                     0   -452.7225078075116    9.677136860500495    8.205815071350751    51.99779701181843    43.55702338003656    82.78610280923495    61.04942178264212   0.2663500547277576   0.8261855533488051
       570                     0   -452.7269489406794     9.67684195438772    8.205571662197977     52.0445243458911     42.9925359270452    81.62930001010014    58.01372615548659   0.2532268046882338    0.791815825230396
       580                     0   -452.7310316016416    9.676567288796265    8.205340727373276    52.08893952723945    42.16454944792253     79.9971690663176     55.1704862569574    0.240978777437275   0.7600101433463001
       590                     0   -452.7350839435034    9.676285295723245    8.205095639077014    52.13449517558297    42.00949864514345     79.6285279117226    52.34070993029587   0.2286576813646172   0.7282602431762277
       600                     0   -452.7389674917314    9.676011042344454    8.204853759461111     52.1795996851648    41.48745959788681    78.58603753145762    49.58423776840749   0.2167130153339173   0.6976311211238875
       610                     0   -452.7426988938822     9.67573998696292    8.204609268113943    52.22434632883409    41.20207761875795    77.99518793296967    46.92141775987196   0.2051281512544277   0.6680452751635958
       620                     0   -452.7462942505643    9.675471737193142    8.204362906850875    52.26883653416102    40.98740483621916    77.54544492774524    44.34074829286497   0.1938830717069264   0.6394059921030881
       630                     0   -452.7497686894308    9.675204681533762    8.204113456743437    52.31317607266674    40.89633846958268    77.33480994135549    41.83985762681753   0.1829594227480643   0.6116378835050853
       640                     0   -452.7531370901583    9.674937360769238    8.203859954316819    52.35748133775334    40.93842030845551    77.38048740207627    39.41436625632011   0.1723383029670002   0.5846721205598546
       650                     0   -452.7564145060322    9.674668130898608    8.203601178868873     52.4018835709231    41.13402073682871    77.72052212695607    37.06045230786883   0.1620000018623051     0.55844663536257
       660                     0   -452.7596167286418     9.67439513103313    8.203335641839432    52.44653598884783    41.50884999643182    78.40215136400072    34.77419685670704   0.1519234568404471   0.5329038526228327
       670                     0   -452.7627609993745    9.674116185890643    8.203061487620689     52.4916227801901    42.09416698343847    79.48362413994543    32.55123024955093   0.1420853887516038   0.5079881882869965
       680                     0   -452.7658669178092    9.673828682138463    8.202776362472466    52.53737147346109    42.92760715233118    81.03519265783804    30.38680800986797   0.1324594232659418   0.4836440737622782
       690                     0   -452.7689576080341    9.673529411657737    8.202477256812582    52.58406935002709    44.05065356300091    83.13442408684672    28.27546611073099   0.1230153016262136   0.4598145337076941
       700                     0    -452.772061168763    9.673214395024495    8.202160341460157    52.63208280520945    45.49941526276874    85.84890684651373    26.21056044000935   0.1137187706686153   0.4364418349047976
       710                     0   -452.7752019614825     9.67289584142191    8.201847449114728    52.68169409488377    44.38695345935649    83.76015461764433    24.06685019709254   0.1045580457301725   0.4133957580021142
       720                     0   -452.7782707295805    9.672597423334899    8.201569925426734    52.73096258622972    38.40077448696788    72.50904585706552    21.83230897353225  0.09592251187889829   0.3915605757970116
       730                     0   -452.7811207808053    9.672210638445266    8.201144153311491    52.77725490630573    50.32825336352302    94.90244201543125    20.59300159520508  0.09398970441073518   0.3732878656878226
       740                     0   -452.7838076637032    9.671758975541378    8.200609450722986    52.82111305127584    75.18608431789879    141.6203650745673    20.11076686860309  0.09221691393109128    0.358332582520435
       750                     0   -452.7863327922078    9.671665818778051    8.200669190785291    52.86169308646142      36.796918152556    64.15338821146716    17.00884725567985  0.08978472731050244   0.3410912120837346
       760                     0   -452.7882750860963    9.671253227709608    8.200706889900657    52.89286137061081    57.41492120088103     9.16229334585244    15.63453194244072  0.08781052805935323   0.3297862822492103
       770                     0   -452.7896678360352    9.671980867487658    8.200095003839294    52.91522716850842   -71.47150367643162    74.59313527119468    13.81619108703494  0.08646089073193544   0.3242412499743801
       780                     0   -452.7912159443649    9.671357137925948    8.200559554889699    52.93952102995287   -18.09271261458033   -44.52735283215058    12.14054134937412  0.08471836995892865    0.314423958519307
       790                     0   -452.7929765538314    9.671214090837829    8.200455832935214    52.96711743755534   -33.39714984526317   -74.14720338560662    10.72417684350997  0.08274672233404802   0.3067535255819013
       800                     0   -452.7944959507857    9.670578960646424    8.199939801256168    52.99032123075438    38.38313349427199   -5.464566124184356    12.38185463297196  0.08152338539362783   0.3007732335029448
       810                     0    -452.795742809886    9.670415407831859    8.199924060299574    53.00922464221225    36.04515256931482   -34.46872656283743    11.38563768507667  0.08015076123846883   0.2958004017820999
       820                     0   -452.7970440590746    9.669997478149158    8.199959372034375    53.02875816245428    69.59983219006905   -70.88690201652322    10.89301727946887  0.07873154488984312   0.2917794912707349
       830                     0   -452.7982247450524    9.669786298029024    8.199064507061447    53.04608120559686    90.95914026628186    71.46734008069123    13.05297383005889  0.07799486851998534   0.2882480847824955
       840                     0   -452.7993838276898    9.670353512591969    8.199421934425935    53.06290889340595   -24.84562451055066   -34.24752876995092    8.816510720115087  0.07647962007006417   0.2831417185753965
       850                     0    -452.800470465135    9.670275551663236    8.198428359937076    53.07852169393313   -21.32612005439806    119.5896031338754    11.10680410751025  0.07565411539083076   0.2825547146486281
       860                     0   -452.8016353420177    9.670451694188868    8.198446332411871     53.0949541705794   -73.93077474865328    78.47920261199253    9.184182253340129  0.07424163939018871    0.278583190478971
       870                     0   -452.8025858149867    9.669179614013665    8.199255688159512    53.10812920297288     81.7574233410401    -83.4513729640246    9.073638265541803  0.07295521149080987    0.275308433808036
       880                     0   -452.8034636587045    9.669315652629587    8.198995808070723      53.120110760072    47.33164716855142   -56.89811401163403    8.505062332661719   0.0722591965753878    0.272949012180875
       890                     0   -452.8043971036166    9.669869987292088    8.198217597249792    53.13266811956593   -44.29498228046732    47.71229857735644    8.489667479992075  0.07132653339467039   0.2700132244767138
       900                     0   -452.8052281838966    9.669126587079614    8.198517485593495    53.14379963552588    42.05928719257592   -29.72318792469765    8.751110324850965  0.07030324747536994    0.267571072680948
       910                     0   -452.8060679219452    9.668957991291828    8.198630132060416    53.15491130539916    49.19094201564418   -60.05368178063251    7.816381970497208  0.07043685418582919   0.2670234505283995
       920                     0   -452.8069023432614    9.669743560277285    8.197667804892996    53.16579662573092   -71.98785242371278    76.95575600546857    7.879912704421679   0.0705967451952508   0.2656859609221556
       930                     0   -452.8077885876438    9.668498554316075    8.198519123609236     53.1772306524941    80.85140091391941   -87.81993357080637    7.623939357686634  0.07068896708020686   0.2638091026486584
       940                     0   -452.8085833171285    9.668975277722172    8.198043534159606    53.18736692553691    1.532990286500264   -20.80659793758494    6.890423787176793  0.07078494545711009   0.2629108475574577
       950                     0    -452.809391017163    9.669333429562652     8.19733063536734    53.19742304736604   -60.55354766831832    68.28309826038392    7.468064870268633  0.07088930514625304   0.2603833831369326
       960                     0   -452.8101732541282    9.669270734992615    8.197126691410464    53.20724212476983   -65.91716939452195    79.64818855813577    7.494145640501332  0.07095653688656642   0.2602861185447351
       970                     0   -452.8109305732644    9.668403056245767    8.197807857964568    53.21637772141732    37.91676235020417   -47.05023173959054    6.834936404753965  0.07097160771353661   0.2566936753313821
       980                     0   -452.8116977867824    9.669105906878707    8.196926925643089    53.22576442090508   -70.69151570685699    76.85644129393712    6.963773008102439  0.07103215689621906    0.256613563377317
       990                     0    -452.812518785358    9.668094675426204    8.197596572735963    53.23553516215375    51.76869267148586   -55.71500597072102    6.744965210051647  0.07103016969104495   0.2535414233364481
      1000                     0   -452.8132633549108    9.668821144338946    8.196896655360188    53.24446658922152   -60.30372145732844     48.1895790162644    6.133774767602492  0.07105189046419753    0.253876777313958
      1010                     0   -452.8140043289799    9.668705881486048    8.196613685480381    53.25316393729045   -57.10552618615819    66.55553337021155     6.71232368248526  0.07106220330333304   0.2525995321421552
      1020                     0   -452.8147476414856    9.667768759564185    8.197316446312209    53.26180114703922    56.27802141140908   -65.89674159756431    6.215747036097176  0.07102068262317721   0.2512173905253743
      1030                     0   -452.8155388520718     9.66857805678265    8.196270133948362    53.27102460978037   -66.81755291457995    81.01543355168737    6.609326843130183  0.07103061460205018   0.2518491364122202
      1040                     0   -452.8162514761844    9.667625313136417    8.197018667705539    53.27899140967133    49.35241376658634   -56.92123637362091    6.043076008091588    0.070968722707341   0.2484224236499215
      1050                     0   -452.8169656788338    9.668506241754539    8.196106985244073    53.28712300807436    -82.5675793728962    78.30554531797699    5.788904174048568  0.07095277844659076   0.2488779840534045
      1060                     0   -452.8176871707425    9.667614373252997     8.19645697513109    53.29514215364466    26.25828925529048    -11.1297440335914    6.524908136830131  0.07089802957511107   0.2458366659392439
      1070                     0   -452.8184239457469    9.667098311949994    8.196870668182974    53.30341010327046    82.40976144522615   -91.32811673672585    5.756947580564722  0.07081948094551363   0.2475197296159118
      1080                     0   -452.8191775794242    9.668134805640292    8.195763620155583    53.31158850293388   -70.75590684724692    72.45209973963225    5.716934725532223  0.07078440077284004   0.2454345918313867
      1090                     0   -452.8199239643921    9.667036300385595    8.196438793127145    53.31965737746127    64.97977525835668   -64.29950486420361    5.860328088999043  0.07068794960144015   0.2429843507640815
      1100                     0   -452.8206180111296    9.667850159560771    8.195719566323156    53.32720577743739   -57.82218463484465    45.59919490716801    5.128705571167489  0.07062716675063503   0.2439046174751068
      1110                     0   -452.8213500282448    9.667820314655749    8.195362288567713    53.33504936593084   -65.94144483604447    75.54674658061703    5.725612259149133  0.07055582081390376   0.2435094853331076
      1120                     0   -452.8220534639019    9.666820527874044    8.196122933526226    53.34246133417652    56.60868901941775   -66.13812033044611    5.274922155760164  0.07043748779387027   0.2418830264119789
      1130                     0   -452.8227540884247    9.667680166585754    8.195156268495147    53.34981875230054   -71.54890641693838    74.10062493491785    5.335731921579337  0.07037463808182404   0.2414021991540228
      1140                     0   -452.8234957816007    9.666621931155811    8.195824636107229    53.35748842101545    58.69052842727877   -60.22216207457766    5.379785893974654  0.07024730771189763    0.238932074108141
      1150                     0   -452.8241806712592    9.667464486668862    8.195036804506938    53.36463401550589   -67.53476384893314    58.54397530484505    4.836081796391998  0.07016419569604947   0.2399545655331707
      1160                     0   -452.8248073575525    9.667250849944454    8.194898671036768    53.37101672321308   -48.93859625305126    56.37819874060258    5.325337146727632  0.07007636987182231   0.2384391679581097
      1170                     0   -452.8254911190199    9.666290142022804    8.195580259597161    53.37800955377702    68.64683191934076   -74.59726324925985    5.062677428370923  0.06993967747064331   0.2379899994009638
      1180                     0   -452.8262270147154    9.667404860081353     8.19437178788348    53.38558678664935    -94.6451740738151    103.6164786825306    5.160768510916948  0.06985461215561445   0.2404116475220015
      1190                     0   -452.8269074075901     9.66608762694116    8.195245328226434    53.39225006989052    71.86975460847113   -64.95923551501104    5.341626226396645  0.06971248873078752   0.2354140177200501
      1200                     0   -452.8275648473339    9.666943041495287    8.194566044872991    53.39886167799759   -55.93166883712733    41.83832473580683    4.391767085885301  0.06960661771390793   0.2370048112098313
      1210                     0   -452.8282613483753     9.66706668013622    8.194071200452253    53.40582236846222     -84.138954429026    93.90669331342853    5.040525253765646  0.06949999512480659   0.2379333736678044
      1220                     0   -452.8289311149379    9.665900467207861    8.194969124438853    53.41230286970283    61.51149933820145    -70.4581261865726    4.651671233351538  0.06934432622140037   0.2351203657839624
      1230                     0   -452.8295802898411    9.666817726419454    8.193950073090912    53.41864562052759    -73.2632155274506    78.18188647889276     4.78792942630086  0.06925560446184731   0.2350508272684536
      1240                     0   -452.8302849464389    9.665810413021077    8.194687422424215     53.4254776299851    50.09976932783578   -61.78930885360694    4.441111819065299  0.06908952816985225   0.2341315931922716
      1250                     0   -452.8309143913286     9.66654702962856    8.193748002361888    53.43154544890213   -59.61808866996443    69.88355262796965    4.875078723034802  0.06900168842027593   0.2337741982129146
      1260                     0   -452.8315490697435    9.665366680064333    8.194681247527509    53.43771997010371    87.95584090843731   -99.55472782282038    4.416716164334717  0.06883475210811624   0.2349883452929981
      1270                     0   -452.8322045859148    9.666482441811205    8.193602883655387    53.44387048911064    -73.8423742005514    64.53538461692864    4.151642239019122  0.06873528288936395   0.2329441803128154
      1280                     0   -452.8328393685407    9.665521222403424    8.194016910493467    53.44979736586751    45.74038799198172   -35.12912682173214    4.933031381832073  0.06860271401130688   0.2295822115659308
      1290                     0   -452.8335253137072    9.665389861500159    8.194108569652313    53.45631249778889    50.77881204135896   -61.93524343399544    4.224971029996389   0.0684448586985974   0.2312694979386798
      1300                     0     -452.83416852042    9.665811868605148    8.193454042369344    53.46222925628381   -16.59667480826077    22.59387677286126    4.589610123344958  0.06833830084875919   0.2285637873407673
      1310                     0   -452.8348101560688    9.665200782332908    8.193882788855554    53.46828583158585    54.11483172504607   -63.73187471554273    4.190996256044168  0.06817902447263682   0.2299859644182655
      1320                     0   -452.8354426516253    9.666171525278719    8.192832690269656    53.47419039011917   -87.54802443329974    90.37741581741425    4.287092123674324  0.06807797444498785   0.2310337016878081
      1330                     0   -452.8361707185914    9.665154998450895    8.193487971109837    53.48076336273436    37.04158904133865   -40.91683114036282    4.245970488011904  0.06790064860078127   0.2272487360781491
      1340                     0   -452.8368210417011     9.66588948983464    8.192738217282672    53.48679621537205   -73.58001638874697    67.46627169554381    3.957648224190998  0.06777503683244956   0.2289328823785655
      1350                     0   -452.8373809254139    9.665650851137553    8.192643354201289    53.49186869134045   -50.55758813996428    59.20429156207421    4.410773188175237  0.06766330941817508   0.2277926706819409
      1360                     0   -452.8380156296856     9.66485811198036    8.193246539062091    53.49762561059969    44.74790475913751   -55.14253850618895    3.953413843373741  0.06749450532590395   0.2273852194746127
      1370                     0   -452.8386722256294    9.665486845400192    8.192398865021429    53.50354444326837   -50.80632929966287    59.88204243618804    4.346168897697387  0.06738331273217897   0.2268926133997843
      1380                     0   -452.8393092648689    9.664700874426508    8.192999399882041    53.50926293131621    43.48590568576169   -53.99595745168723    3.873620393730536  0.06721170796253197   0.2264306587796304
      1390                     0   -452.8399250941968     9.66543045080229    8.192084462155522    53.51479226130007   -65.01851475270834     73.6380498947827    4.239581816152263   0.0671093694980413   0.2268009051405561
      1400                     0   -452.8405407173726    9.664522475734186    8.192779569845772    53.52023554043227    46.15060996089541   -56.16009781107334    3.825619090346477  0.06693986398390986    0.225501067542189
      1410                     0   -452.8411345730269    9.665349515305124    8.191812305669744     53.5255363442075    -75.2013262377624    81.98640113907442    4.103205924318434  0.06684127045713401   0.2263736110451836
      1420                     0   -452.8417481809589    9.664299621735552    8.192591126035675    53.53090210202403    55.22522532176308   -63.70855688231183     3.82220250942015  0.06667132283311109   0.2245979463950402
      1430                     0   -452.8423706826623    9.665293722431336    8.191531768869515    53.53642878027963   -89.35829528270098    91.78553976783745    3.886439171302623  0.06656346892996734   0.2260945027690592
      1440                     0   -452.8430901530527    9.664212352586219    8.192245431758241    53.54261099783287    43.77953264038498   -49.42053710189722    3.817883010942236  0.06637692619025948   0.2226535023222712
      1450                     0   -452.8437250955201    9.665100607392811    8.191333649226529    53.54822320793102   -87.10717733157722    83.78315290841117    3.658778858713154  0.06625338434200259    0.224763123649038
      1460                     0   -452.8443316530395    9.663700759339868    8.192202980371802    53.55345688377977    91.20851058479759   -87.70779299339374    4.106025730147491  0.06609754880004429   0.2225012462075637
      1470                     0   -452.8449412223122    9.664887262823905    8.191163319275645    53.55872152461321   -79.59858665701289    74.09375990621515    3.543795560792777  0.06597714513589284    0.223535871133972
      1480                     0    -452.845569136809    9.663617738949874    8.191902521110412     53.5640859131672    80.80599418065947   -77.23858738213485    4.030832348531933  0.06582127947227517   0.2211070395345428
      1490                     0   -452.8462025140279    9.664702186173535    8.190927680360808    53.56953159049105   -76.66420159453581     72.0231932704247    3.518136879662292  0.06569273910530234   0.2224572609900961
      1500                     0   -452.8468412800347    9.663440630052479    8.191670250162472    53.57496184109812     82.3295552500027   -79.62240760610619    3.947863739021878  0.06553278165720537   0.2203973043249657
      1510                     0   -452.8474825568555    9.664559095984963    8.190655234582563    53.58043684797886   -79.81695477486601     75.4601084186758    3.467567097040448   0.0654032744930636   0.2218079180897142
      1520                     0   -452.8481239921099    9.663263607879497    8.191432142459536     53.5858456103324    83.60566127430803   -81.72437944927827    3.867189050405864  0.06524138188763835    0.219694393129681
      1530                     0   -452.8487668314696    9.664401769233667    8.190391552811178    53.59129271150568   -81.17327379217646    76.98276067020622    3.418012356652464  0.06511214363328301   0.2210594255272733
      1540                     0   -452.8493319520312    9.663968917476076    8.190473380573509    53.59595921502102   -32.30480112780867    38.98090782669878    3.784852191058642  0.06499118735249651   0.2182867402655061
      1550                     0   -452.8498862929421    9.663285068365845    8.190995720588724    53.60067572217431    49.19459646280144   -60.74902917304102    3.349267926695995   0.0648314480718422   0.2197559521408752
      1560                     0   -452.8504629218323    9.663867292417523    8.190200382139366    53.60543597280338   -38.53777660877184    46.31172348247198      3.7624295454267  0.06473646160025427   0.2179736113115938
      1570                     0   -452.8510852595522    9.662885605689338    8.190918891061411    53.61071474002595    81.81095956709621   -90.38630074847096    3.436457130724826  0.06455691167751354   0.2197373870387115
      1580                     0   -452.8516754420141    9.663902622416968    8.189791105760905    53.61558121511647   -64.77080827828858    73.64236533451118    3.709060701639808  0.06446489260664076   0.2189459370608441
      1590                     0   -452.8522785769828    9.662986666035309     8.19049407147336    53.62055383577917    47.15351069459396   -57.76871692680758    3.278879519166756  0.06429009466445386    0.217900291413733
      1600                     0   -452.8528968781994    9.663536922049579     8.18971147462992    53.62561522330977   -37.06450209325209    45.41304088645408    3.685171735666738  0.06418520436141993   0.2164056146699449
      1610                     0   -452.8535269420911    9.662861648725245    8.190215499593094    53.63084233128106    41.79833328309254     -53.293446690772     3.20015623277946  0.06400614036195167   0.2171731428203462
      1620                     0    -452.854165789479    9.663374438691642    8.189440505141711    53.63604837757448   -37.70666018671289    46.84334716665747    3.660230040301764  0.06389836159379554   0.2157538407583407
      1630                     0   -452.8548001147736    9.662654042537877    8.189989765025091    53.64128875694148    47.01856674919063   -59.20935533996177    3.142218938806532  0.06371499897246326   0.2167861547479983
      1640                     0   -452.8554324042036    9.663195379919602    8.189184713251629    53.64639548362559   -36.14829549941501    45.63415468767666    3.627111135540607  0.06361153805999044   0.2149386493576895
      1650                     0   -452.8560637825931    9.662476459281919    8.189736248327563      53.651585311683    48.34896507383724   -60.64133207054503    3.097648568222701  0.06342778091566313   0.2160856423566067
      1660                     0   -452.8566930592481    9.663024667650003    8.188924267069027    53.65663607611524   -35.68427536574782    45.22132336113319    3.585236275835537  0.06332607350028009   0.2141375731270125
      1670                     0   -452.8573227917011    9.662305543196448     8.18947578852249    53.66178631593573    48.80316648481408   -61.11264327347197    3.055637008268184  0.06314210577115682   0.2153369122837606
      1680                     0   -452.8579504385911    9.662852809550525    8.188663941483801    53.66679547316286   -35.08125209867911    44.58292870872738     3.54243883566654  0.06304143338350246   0.2133208461245627
      1690                     0   -452.8585786551478    9.662137332753202    8.189211506468856    53.67190909369478    48.87818412179075    -61.1933959460677    3.014859827975411  0.06285740339818559   0.2145758353124358
      1700                     0   -452.8592049885444    9.662679446475764    8.188403244512878    53.67688120496106   -34.30060660194815    43.74714293872175      3.5006950842816  0.06275756450278522   0.2124973910226815
      1710                     0   -452.8598318391655    9.661969041695848    8.188945529445933     53.6819615033581     48.9353011191462   -61.26237697121888    2.975279273126609  0.06257345706580211   0.2138210166590962
      1720                     0   -452.8604570178113    9.662505999476144    8.188140691361928    53.68689949621139   -33.54152457391694    42.93839741056842     3.46037118352386  0.06247441940589812   0.2116806560676831
      1730                     0   -452.8610681342178    9.661721976084811    8.188730092172085    53.69183310863797    59.85437177106336    -70.5558635433123    2.997676081771042  0.06229440076915341   0.2129946560388084
      1740                     0   -452.8616248110949    9.662647497592307    8.187647641972847     53.6962915870662   -73.82692122631596    83.45832674136058    3.383896100647285  0.06221316075189418     0.21367813410068
      1750                     0   -452.8622195381691    9.661515271703573    8.188529165596576    53.70101520877888    66.67355060314839    -78.2755400998238    2.944378804294481  0.06203132500374733   0.2130318388508953
      1760                     0   -452.8628362617666    9.662357271635196     8.18749087780996    53.70585855392365   -56.71167271965848    65.86178303269863    3.354410143512205  0.06193811746026101   0.2115527530857501
      1770                     0   -452.8634473032274    9.661489135054957    8.188149214808591    53.71069872367366     47.9808188472106   -59.11365385926815    2.898977071148888  0.06175754727787414    0.211245443975998
      1780                     0   -452.8640757693872     9.66203126750586    8.187349605950555    53.71561541259569   -35.39830110206957      44.164602117589    3.331836753273893     0.06165633852739   0.2094548698970305
      1790                     0   -452.8646992674744     9.66135455700616    8.187854769162612    53.72058197534101    43.16040044174163   -55.36354642599338    2.830161546521913  0.06147283796370977   0.2106243116614662
      1800                     0   -452.8653230776451    9.661804730795509    8.187117995608457    53.72543139318452    -27.7318310114227    36.67447235274737    3.310082459706864  0.06137415496497835   0.2083544079249493
      1810                     0   -452.8659463939139    9.661133441795016    8.187621403839518    53.73040359489544    49.95332211131618   -62.56728750517471    2.793605449897995  0.06118858272853188   0.2102811836394969
      1820                     0   -452.8665668595409    9.661667949732744    8.186809841964621    53.73520487562752   -32.16715252809838    41.66469071797289    3.286002720317963  0.06109410562278378   0.2078915822479023
      1830                     0    -452.867187857995    9.660950002769011    8.187352640775588    53.74013300272038    51.76229618707604   -64.13812754502803    2.769450931212399  0.06090753300518134   0.2095353708019526
      1840                     0   -452.8678094240428    9.661480945183452    8.186548242512387    53.74492064981073   -29.93106021310337    38.97514583945031    3.242416399291516  0.06081233132413874   0.2069500384130175
      1850                     0   -452.8684297678803    9.660814171526424    8.187046227496024    53.74982844378486    47.08785781890278   -59.53817335228374    2.730733861486601  0.06062654598347386   0.2086151989778673
      1860                     0   -452.8690503696501     9.66129007275747    8.186283777223434    53.75459770874269   -27.23547710598817    36.21254051175914    3.210868798045891  0.06053112089056983   0.2060572779265713
      1870                     0   -452.8696716741578    9.660613932647145    8.186788003225852    53.75951200887044    50.91357076191306   -63.56982307689889    2.698699058997399  0.06034368549422789   0.2081073022162487
      1880                     0   -452.8702906575361     9.66114061571988    8.185979931935426    53.76425324409131   -30.18770429024092    39.50755577326913    3.185302050775483  0.06025071210888203   0.2054895521972171
      1890                     0   -452.8709098858389    9.660434462548549    8.186508698560267     53.7691321159208    51.96081375545791   -64.42222304064975    2.675075814818921   0.0600625249364892   0.2073432314939112
      1900                     0   -452.8715306763947    9.660952702975818    8.185710532773173    53.77387018337652   -28.07769165893769    36.98616739281595     3.14533790577992  0.05996850822232758   0.2045634201479769
      1910                     0   -452.8721492340715    9.660301707465026    8.186191701982484    53.77873025389765    46.63088934024847   -59.16498036996538    2.638863216909125   0.0597810034082827   0.2063898291062919
      1920                     0   -452.8727474218155     9.66074576587221    8.185488425083197     53.7832654421816   -23.16661043730518    28.50803857157334    3.027245705577454  0.05968563173681377   0.2032150605506195
      1930                     0   -452.8733226288361    9.660309464181767    8.185787894951453    53.78778216588769    23.62610966661961   -36.68374092543583    2.577044267181307  0.05951523590347567   0.2051013216995541
      1940                     0   -452.8739272681167    9.660545987408575    8.185195151560151    53.79240854965318   -18.41055927890127    28.76433341709349    3.135183058547557  0.05942449025478908   0.2029202251987876
      1950                     0   -452.8745482390536    9.660018964410085    8.185593282933521     53.7972634187076     39.4236520906531   -52.62977320721365    2.561522541649662  0.05923267739604966   0.2048835315787761
      1960                     0   -452.8751679341451    9.660448558381578    8.184843554572176    53.80198642001588   -28.77731474299588    38.81533136448899    3.087964781353313  0.05914133087593237    0.202552357057715
      1970                     0   -452.8757922702097    9.659674030311557     8.18542552880232    53.80688346783111    62.04994136081309   -74.67900628390946    2.569610984586472  0.05894564986686895   0.2049793772656636
      1980                     0   -452.8764091841855    9.660329241778319    8.184505182390252     53.8115523425989    -36.3251623034792    46.12393004362267    3.046526194856716   0.0588570766730737   0.2021245893787661
      1990                     0   -452.8770254650253    9.659631462160581     8.18502299754781    53.81633370100752    44.43614327725425   -56.49615532866233     2.54244282652859  0.05866587061742658   0.2031793822765318
      2000                     0   -452.8776509482148    9.660022836441859    8.184327735404034    53.82106493818818   -18.90507916377835    26.72982207811764    2.982582128029564  0.05856747177136216   0.2002354613660515
      2010                     0    -452.878269378067    9.659548288870161    8.184654709243532    53.82588300487751    31.82288911620431   -44.59708088586496    2.488800617252503  0.05837882165988964    0.202210740992567
      2020                     0   -452.8788901803676    9.659872824654226    8.183996035733642    53.83059276653683   -22.49477092426312    31.36910820791667    2.979646549503622  0.05828358645957327   0.1997508609044428
      2030                     0   -452.8795190339894    9.659175657034346     8.18450484904106    53.83552105216352    57.61020160712489   -70.85417108948648    2.472963814411484  0.05808505097176483   0.2027079578700271
      2040                     0   -452.8801327356186    9.659804568201155    8.183582274724763    53.84016513737194    -37.2238891202587    48.50467910387894    3.002608777579414  0.05800067750021261   0.2001668005180921
      2050                     0   -452.8807494202269    9.658984167665988    8.184206218605075    53.84494846114641    59.58199200276454   -71.90720194120495     2.47301324321915  0.05780089086417847   0.2016951475949921
      2060                     0   -452.8813740399254    9.659617925405579    8.183300018729534    53.84966013436121   -36.23028579798452    45.49184318294824     2.92640801310538   0.0577086387915282   0.1989187629592245
      2070                     0   -452.8819923813181    9.658966526762923    8.183769243534933    53.85443358277063    37.98100068180861   -49.99348422383199    2.440512967330503  0.05751420525015559   0.1998578806090647
      2080                     0   -452.8826176345235    9.659243264407664    8.183160490285584    53.85914704130545   -10.19442220080507    17.68722798532991    2.875169559541941  0.05741367835889435   0.1967528267052359
      2090                     0   -452.8832237668337     9.65888031128458    8.183393337347169    53.86385663450556    25.53970183231882   -38.20342146221684    2.393562520097872  0.05722508413985963   0.1989228742664136
      2100                     0   -452.8838452560665    9.659104885696765    8.182809014628893    53.86855831280332    -15.6004157914645    24.24580843100607    2.874978397431414  0.05712796814991114   0.1962904867311986
      2110                     0   -452.8844715211795    9.658497297876865    8.183241745607058     53.8734578954096    52.19824751914312   -65.79163026491558    2.366696811246563  0.05692543411067184   0.1994928884575393
      2120                     0   -452.8850069597008    9.659278311026988    8.182228670830703    53.87753231573293   -61.71547160861547     71.4880568738574    2.851012752598136  0.05685727708737025   0.1984524636436974
      2130                     0   -452.8856003087033    9.658432881159669    8.182835582313794    53.88202420241564    39.02757969520253   -47.60558058128629    2.457826789722317   0.0566720289392371   0.1965160849215448
      2140                     0   -452.8861906383427    9.658860615306038    8.182148106218868    53.88651216263309   -29.08102269362901    35.84207253428395    2.774598751046106  0.05657035224320188   0.1950950200036912
      2150                     0   -452.8868004502681    9.658289270931382     8.18253384189013    53.89124743019769    34.23589824466707   -47.03893127020462    2.333431165717875  0.05637609722373708   0.1969704685702054
      2160                     0   -452.8874260146488    9.658528709542338    8.181941355474757    53.89595596964509   -9.103860854580567    16.50421649224274    2.778115458791286  0.05627594149333835   0.1935898757878894
      2170                     0   -452.8880471606518    9.658157516387647    8.182179238375669    53.90080081138325    26.99572459378674   -41.21676741737939    2.275563125962411  0.05607421281523745   0.1964504300591016
      2180                     0   -452.8886654231827    9.658460280763276    8.181503628318863    53.90547822953697   -24.60878918822115    34.40840137544651    2.803470596546705  0.05598377470693089   0.1937354869170566
      2190                     0   -452.8893021376622    9.657720992167675    8.182039899429594    53.91045901215612    60.17655105981775   -73.79210052185788    2.286412256494924  0.05576928156313239   0.1968861261562619
      2200                     0   -452.8899110560751    9.658405627635226    8.181036199044454    53.91508527657611   -42.23593864707591    55.74788743687497    2.858231924074729  0.05569049174636631   0.1948134293120247
      2210                     0   -452.8905457115405    9.657581878682347    8.181673052729939    53.91997693886692    53.82251625806994   -67.27965796272103    2.265417015606066   0.0554685618086571   0.1957399800849113
      2220                     0   -452.8911424185337    9.658121078819137    8.180802592482863    53.92448602300045   -28.96008720215261    40.92835228585412    2.804821490832577   0.0553880715479686   0.1927507536876454
      2230                     0   -452.8917643620055    9.657323456845027     8.18139678516753    53.92932884100901    63.74304553877457    -76.2020470427083    2.273259624516952   0.0551718825880825   0.1950247532025781
      2240                     0   -452.8923501833766    9.658194202190785    8.180289280806351    53.93379809919553   -63.37592084553481    73.44404148875056    2.725227848813358  0.05508859993578034   0.1939042910342691
      2250                     0   -452.8929401521227    9.657347455403873    8.180893575673746    53.93826969167992    37.03551912177655   -45.86712713591407     2.32456443900996  0.05489521418366464   0.1917187015541708
      2260                     0   -452.8935622703269    9.657778719165176    8.180165037896739    53.94303104164621   -32.44705816545565    40.47374886145546    2.669228006978349   0.0547853824480137   0.1905397328713589
      2270                     0   -452.8941776667331    9.657231322042353    8.180516618891716    53.94778756494775    27.13212883573874   -38.15548183954542    2.251978882807045  0.05458327565383825    0.191273038150828
      2280                     0   -452.8947912572711    9.657497502190015    8.179903649546654    53.95246543556321   -20.03231456712731    27.94351603928992    2.649501373377597  0.05447925000906624   0.1890917297128316
      2290                     0   -452.8954132671585    9.657104704156918    8.180119264617991    53.95727549500501    18.72889866092106   -28.78569081639776    2.252128658599099  0.05427769477003111   0.1899035663702162
      2300                     0   -452.8958887268122    9.657590590787361    8.179355165403635    53.96100229559749   -55.11565810209062    66.87444470068246    2.705184044342602  0.05421293071362593   0.1912793353836498
      2310                     0   -452.8963839491312    9.656770585114199    8.180016886360557    53.96481140407388    42.97876319462491   -55.94131105585757    2.181181048724212  0.05402310999293655   0.1910382815049085
      2320                     0   -452.8969647723357    9.657230523004735    8.179191917169051    53.96927417917116    -29.1883869705242    42.92193018782822    2.737075597015191  0.05394555713026525   0.1893242046992537
      2330                     0   -452.8975537399771    9.656627886941767    8.179679541222196    53.97386112883076    37.52140874441182   -53.11914221585824    2.104713313372156  0.05371933442322538   0.1911508613403977
      2340                     0   -452.8981689089396    9.657060180425768    8.178881698176209    53.97852383934561   -31.61260371648855      40.764716095465    2.614744827760395  0.05362998432271021   0.1875038841367956
      2350                     0   -452.8987998501147    9.656448333131863    8.179286533692453    53.98343694022172    35.72956652942879   -47.66687337978087    2.165494614681661   0.0534114142089521    0.188634711877692
      2360                     0    -452.899316850754    9.657237881333835    8.178260872739585    53.98750843391654   -79.62616079538387    89.38175161214853    2.599117813643256  0.05333618088259863   0.1906253685052989
      2370                     0   -452.8998717384841    9.656259264816114    8.178990006396905    53.99172749889341    38.48039518450922   -49.45379891272253    2.170350800966458  0.05313796328609734   0.1877334304958215
      2380                     0   -452.9005042375331     9.65662270495349     8.17828945837651    53.99657126163469   -22.36283089221125    29.37716453642313     2.53156087793573    0.053023576929388   0.1850681619841005
      2390                     0   -452.9011191047322    9.656173931589681     8.17855310309052    54.00139440978463    23.41729831951534   -35.70727904858765    2.121953347423874   0.0528111007435331   0.1868269038563374
      2400                     0   -452.9017272701097    9.656558041858041    8.177813958984503    54.00610001984582   -39.67015663551523    48.73484711356795    2.551381657615723  0.05270969915536074   0.1854314646291297
      2410                     0   -452.9023385155589    9.656056754877355    8.178106644686004    54.01082138641429    13.38293259883735   -21.83715522099251    2.183457444846933  0.05250282985525503   0.1844192836853551
      2420                     0   -452.9029117721954    9.656537613604117    8.177347716220662     54.0153417977852   -62.39143618089604    69.60222438310888    2.491858030333796  0.05239326943481647   0.1858930066740432
      2430                     0   -452.9034599646496    9.656014768289761    8.177668773811215    54.01954698729723   -5.034009298734602   -3.524424819925474    2.163975276874141  0.05220666993070233    0.183539755415722
      2440                     0   -452.9040116410232    9.656111464132225    8.177245619946369    54.02384016806162    -29.1037767986308    33.98961754069996    2.429259322495917  0.05209657677450005   0.1825456517050595
      2450                     0   -452.9045357403983    9.655818425610919    8.177414083086537    54.02799914105877   -2.489853886880084   -11.90199293901668     2.03136705013029  0.05190209845569829   0.1846750396727866
      2460                     0   -452.9050874267302     9.65581942837775     8.17701917012694     54.0322281602451   -13.38933733947872    18.26080775235931    2.412390654875386  0.05180828789181295   0.1810962545602488
      2470                     0   -452.9056130794134    9.655539734948004    8.177166171619936    54.03641746852044    11.35172951037758   -24.80979505872875    2.036960626759479  0.05161404682863203   0.1836676910929305
      2480                     0   -452.9062127575131    9.655691186998679    8.176599185196926    54.04107077639556   -20.66707675167633     29.5899730530712    2.474400288940368  0.05151391056160595   0.1810309539934334
      2490                     0   -452.9067895936701    9.654993434968461    8.177058424616369    54.04566191130863    58.58495534755043   -68.32462996277435    2.093758726077992  0.05130171608217764   0.1831316835778355
      2500                     0   -452.9073882624724    9.655608088872635    8.176168069973425    54.05030299662317   -35.41585393772647    42.73891246413767    2.424083017894388  0.05118927475255478   0.1806615202591152
      2510                     0   -452.9078997675015    9.655158577972617    8.176429534327196    54.05430548285655    12.54010258117177   -19.98569415228533     2.12482451087433  0.05100783783714621    0.179996990420428
      2520                     0   -452.9084720850478    9.655379181947389    8.176041322572758    54.05883681318851   -31.71146802522062    4.425854011275569    1.693613315887535  0.05076455911980775   0.1786686055049378
      2530                     0   -452.9090117694788    9.654870490976176    8.175723088529752    54.06302993849744    33.99932461064552    49.67414618027645    3.982973488733833  0.05103055803455087   0.1806386080566763
      2540                     0   -452.9096099168648    9.654348664071799     8.17574561632088    54.06777853070346    90.79882674960528    6.845956353385086    4.234014433931126  0.05089901704113346   0.1781055904009727
      2550                     0    -452.910101066517    9.655183829733977    8.175398455128176    54.07167059656233   -39.19963107908028    37.71455983450317     2.21977299481378  0.05041644472172249   0.1787050143849216
      2560                     0   -452.9106468739922    9.654578563360019    8.175624134331345    54.07597038689492    29.06703652068873    -31.1046655107069    2.182590027838382  0.05025567373067627   0.1766339848494063
      2570                     0   -452.9111958659295    9.655083690676495    8.174938684494016    54.08035677391772   -50.19697030673778    53.70843665323859    2.297706200754406  0.05011989903206433    0.178107440178244
      2580                     0   -452.9117965191486    9.654126853056084     8.17550305975718    54.08516121835098    62.83535209617514   -70.40910757239011    2.050286915306543  0.04990900910530393    0.177862050221701
      2590                     0   -452.9123666874279    9.655100668241436    8.174384386837435     54.0897297245232   -79.02135832849075    83.10276593498622    2.295711487537149   0.0497854033052769   0.1796325040657167
      2600                     0   -452.9130158709357    9.654192140249554    8.174826700059512    54.09478858753791     27.4037960894154   -24.64116651491125    2.236054210375258  0.04959514427866003   0.1743786397290243
      2610                     0   -452.9135302671127    9.654910622273306    8.174096687795021    54.09899888219467   -80.75595823501435    73.40686886495979    2.068988597787705  0.04941604595627293   0.1786785411142633
      2620                     0   -452.9139868387063    9.653471464139322    8.175086394946822       54.10283725607    99.38924934657754   -114.4382673256131    1.877220780475889  0.04924988414939461   0.1835785934946316
      2630                     0   -452.9145962532095    9.654812182858157    8.173600911166849    54.10755869024855   -91.62640625445805    93.74593190440434     2.22890726893205  0.04913172331695387   0.1790008452434009
      2640                     0   -452.9150673733934    9.653228197915748    8.174675038353609    54.11137003269827    108.0095940201461   -109.6699566990704     2.09681853735968  0.04897649729839649   0.1779494230197331
      2650                     0   -452.9156303720281    9.654405181906316    8.173447810733016    54.11576734162742   -60.99535246264301     63.5050897452608    2.214030499542321  0.04883124821771483   0.1752555568882845
      2660                     0   -452.9162008881823    9.653189560237351    8.174262983606484    54.12050263860982    86.29897185388224   -98.38292004652425    1.900057624355212  0.04861018579656699   0.1790349759129622
      2670                     0   -452.9168136953899    9.654195343257546     8.17314046183273     54.1252898831593   -60.98839356888796    54.22054449418208    2.038398500189682  0.04845226365844043   0.1746303399319116
      2680                     0   -452.9173227315658    9.652914424177506    8.173856826665645    54.12946996820641    97.61708783532663   -97.82454598802578    2.082089003774331  0.04831194683616485   0.1746804607914788
      2690                     0   -452.9178699689258    9.654355932170665      8.1724116835007     54.1339441878369    -106.517247212591    112.7040852643743    2.284643926664971  0.04817375394948061   0.1782523351000173
      2700                     0   -452.9183526527704    9.653171709815917    8.173254705741872    54.13772526787857    38.79101334724255   -50.21822821417499    1.889031125165273  0.04796976817318346   0.1728271723095921
      2710                     0    -452.918894873931    9.653133521024451    8.172906823984071    54.14205435626682    32.14482789509398   -28.50219429924606    2.142482554141917  0.04785349693154211   0.1693436116160137
      2720                     0   -452.9193578370612    9.653870130438294     8.17219146638133    54.14590859795656   -77.59810635044118    69.77419679478726    1.995949189939854  0.04767701383199002   0.1737023725987481
      2730                     0   -452.9197993962535    9.652527345152677    8.173082584001699    54.14963732001704    89.73834178949122   -102.7243325205098    1.827543491820698  0.04751670713467297   0.1769377471143245
      2740                     0   -452.9204267107646    9.653739465892004    8.171705368220344    54.15462143173866   -85.16759803682945    85.92667697620462    2.129479288111523   0.0473732320152043   0.1732321196167412
      2750                     0   -452.9210425179166    9.652530052861145    8.172442006109296    54.15962669572414    60.40534063739724   -68.35615471654891    1.904821994849007  0.04715206834319421   0.1711518319925892
      2760                     0   -452.9216277632365    9.653420979726739    8.171337212708806     54.1644152011632   -71.33978074365031    76.02271527040251    2.166575083333126  0.04701026637581215   0.1712988197467783
      2770                     0   -452.9221170383176     9.65232881230274    8.171985179854655    54.16836799794034     62.0569768922409   -59.18182351116948    2.058525257889639  0.04684975987031195   0.1675052647013062
      2780                     0   -452.9227129027083    9.653092572463319    8.171097775825167    54.17325583591184   -53.92620463077441    54.91293230205316    2.082809549081349  0.04665787099475425   0.1684516624942954
      2790                     0   -452.9232241195668    9.652084203825433    8.171762311598457    54.17760331670988    66.37043782705966   -79.99898469998995    1.778617145229334  0.04644170068763261    0.172365932282033
      2800                     0   -452.9237508071139    9.653081217973776    8.170510680995891    54.18191541881206   -77.52810446550866    86.82282126244847    2.209461600662899  0.04634819582084278   0.1711036206145408
      2810                     0   -452.9243444416419    9.651918851081577     8.17128580233083    54.18675374494305    61.54457107104832   -69.14016358850306    1.855948592994851  0.04610302197262169   0.1681351271117282
      2820                     0   -452.9249352472809    9.652711770721805    8.170220468218481    54.19163999612046   -57.39498487046809    65.49102109470149    2.157156604514757  0.04596261663277824   0.1677206592354912
      2830                     0   -452.9254129627419    9.651233844825153    8.171307106197364    54.19588442126122    125.1631275372771   -136.3936976660496    1.748533657182014  0.04573203254265808   0.1759792662651624
      2840                     0   -452.9259580588935     9.65274616570575    8.169632074985978    54.20026033195538   -87.41246748144214    99.26499084170349    2.216220008371409  0.04563499685027961   0.1712143007650828
      2850                     0   -452.9265377893828    9.651328291847832    8.170553623140666    54.20496164988698    86.15007910936451   -84.38958393789854    1.928816037597969  0.04541086440151168    0.164899760790005
      2860                     0   -452.9270560564091    9.652248915479351    8.169548689619777    54.20921905085147   -48.70211811052994    51.97793571706815    2.048125339343997  0.04524950894965978   0.1641428197654765
      2870                     0   -452.9275168109405    9.651636740510193    8.169909806169315    54.21308107435935    20.17381154183651   -30.25811699200119    1.797276797593695  0.04505011593879011   0.1641152326911635
      2880                     0   -452.9281000745748    9.651714398617814    8.169420691264868    54.21791043999306   -3.793719730240919     8.62251155903809    2.018349578460364   0.0449038446042651   0.1609732529870351
      2890                     0   -452.9285552576985    9.651375591500086    8.169618314531975    54.22187172189139    28.01640637881776   -43.79524791350173    1.696095522204608  0.04467658352969838   0.1660951971811316
      2900                     0   -452.9290588858736    9.651187846365753    8.169194881809252    54.22613962114977    42.15393929135699    -22.0788840474374     2.17166279559374  0.04461873069147249   0.1627838234098966
      2910                     0   -452.9296189266776    9.651271571328319    8.169063875001383    54.23069805903566     15.6884171816506   -21.64790715066026    1.825468837409561  0.04434873672893176   0.1605436435221053
      2920                     0   -452.9301790921664    9.651190239316387    8.168721221252925    54.23542255821378    12.92668478479221   -5.909823983836684    1.995739227057731  0.04419761132018964   0.1586973778444052
      2930                     0   -452.9306872989335    9.650830611721771    8.168875160088843    54.23980803855878    46.25315027938159   -56.43881726028712    1.722712926736923  0.04395977725418831    0.161991439302881
      2940                     0   -452.9312431828886    9.651517964952548    8.167833313524273    54.24458677535668   -58.11932540362376    70.36396630516327    2.101581494650274  0.04383837976272132   0.1630190745404786
      2950                     0     -452.93184440902    9.650958232263463    8.168136152449177    54.24956749561284  -0.3145958095300231    -7.65082257809658    1.779103552329568   0.0435634019983959    0.158776467091195
      2960                     0   -452.9323796790542    9.650989899956027    8.167633359774435    54.25419678826118   -17.38705737252879    30.77633874168586    2.060495938544791  0.04344146255675775   0.1588311840145559
      2970                     0   -452.9329026377684    9.650730824773822    8.167828460205557    54.25875279039047   0.9496972613953266   -20.75969975687988     1.60601771612274  0.04313918737391997    0.162898019337772
      2980                     0   -452.9334157176386    9.650903308259259    8.167174612626326    54.26301346366584    -33.0828732840864    43.44485608768147    2.049481829395813   0.0430641915898772   0.1572700481886913
      2990                     0   -452.9340121475404     9.65060048149472     8.16720889529296    54.26809742618786   -9.644467478392398    4.369259994149028    1.787116300566437  0.04279337341521015   0.1558007753361972
      3000                     0   -452.9345193376392    9.650545832707202    8.166877836530244    54.27247057745311    -15.2390258209701    20.75921698469095    1.916393173790221  0.04264409858727351   0.1547740860032377
      3010                     0   -452.9350478857245     9.65008430230978    8.167110502949694     54.2771467144245    30.23154193791478   -44.43838832846219    1.624004833870419  0.04237713771436135   0.1588750929004079
      3020                     0   -452.9355646242538    9.650755108422613    8.166113870227553    54.28163269034009   -71.58322892152246    75.06572810221311    1.875029859422317  0.04224306845656355   0.1583869815339763
      3030                     0   -452.9360549849468    9.649779603695444    8.166731293546212    54.28582436811276    44.20194084364226   -50.45868959714402    1.721573279843778  0.04203327768558278   0.1561274508205602
      3040                     0   -452.9365888464735    9.649676505755757    8.166364320336003    54.29045388508161    44.18123997934047   -36.27593898569353    1.794994774980893  0.04187592812551827   0.1525220941214328
      3050                     0   -452.9369528613539    9.650851723322379    8.165310157002683    54.29380820427205   -122.5820347542403    119.6102345475883    1.883179948546638  0.04169999693701449   0.1617147834986862
      3060                     0   -452.9374492390302    9.649089177223974    8.166509559184778     54.2981699872597    96.67610379011558   -108.7655260553803     1.53736058935437  0.04147434900765157   0.1607904599932098
      3070                     0   -452.9380171553519    9.649912149671335    8.165433776078952    54.30285912490596   -26.18505574565273    27.40534467225495    1.828993964508181  0.04131808861213701   0.1512295698852744
      3080                     0   -452.9384353581644    9.649662802919316    8.165297891845366    54.30657783318139   -4.236452662179323    15.25994474171123    1.885414561491116  0.04118729489124847   0.1509084235672851
      3090                     0   -452.9388827105903    9.650281290655172    8.164680156321884    54.31062926248399   -99.93786367020215     94.2436886065879    1.821065714134977  0.04095393951691602   0.1566894690002632
      3100                     0   -452.9393402638511    9.648825606054759    8.165482413092331    54.31459875619276    80.89267130204729   -76.47902484076809    1.672831515388842  0.04080708949364836   0.1507590743864645
      3110                     0   -452.9398249745788    9.649776886652294    8.164461487283821    54.31882906601746   -58.24529086653533    63.43866460509922    1.938807020805183  0.04063129915225498   0.1515241930100981
      3120                     0   -452.9403205159575    9.649173743618483    8.165543046503851    54.32350024095805   -8.871857599369829   -173.0032213635718   -2.470256997718868  0.03961991559858011    0.149970955193455
      3130                     0   -452.9407412729763    9.649592118684222    8.164143043948172    54.32700488821451   -61.83049911875413     43.4994262264386    1.268229455533157   0.0401584878900648   0.1502185189979318
      3140                     0   -452.9412434252249    9.648518156806244    8.164539233782692    54.33151595488882    70.31540917127596   -41.15111661437723    2.472973105768772  0.04017307859967714   0.1539088142024614
      3150                     0   -452.9417087607951    9.648184657571509    8.164648556692217    54.33571485533067    98.13127054828513   -101.9279151802925    1.534805947478458  0.03983357018903096    0.151980615576727
      3160                     0   -452.9421067558852    9.649574954565324    8.163187087553222    54.33932690704798   -96.59238175065576    105.0978776188741    1.895287640995351  0.03971839114693515   0.1547360305922461
      3170                     0   -452.9425421146179    9.649007054224654    8.163500262526009    54.34300229110249   -34.08415999461592    29.67566998469193    1.683835108794967  0.03950319401794713    0.146562942584788
      3180                     0   -452.9429190908803     9.64865867711524    8.163458639782094    54.34638247691588    1.864431035750739    4.204988196494848    1.726597273018883  0.03938540879672461   0.1444950054945071
      3190                     0    -452.943376399919    9.648359386262387    8.163622839987612    54.35073451347344    25.72054146900325   -45.83900011463203    1.447966034624996   0.0390923558135657   0.1531853390118501
      3200                     0   -452.9437962266788    9.648202168274702    8.163225053608482     54.3543561910734    37.00132388871563   -24.94335992256191    1.709632179323517  0.03904013955190834   0.1439997368363755
      3210                     0   -452.9441680987371    9.648560113546521    8.162966503758346     54.3578248946101   -23.66009031030287    4.432582144830145    1.512480608096978  0.03876960348912428   0.1501111039133285
      3220                     0   -452.9446766415405     9.64819759741586    8.162749874295061    54.36226457650738    11.48158092937257   -7.448905547059932    1.649492174206474  0.03864610596598016   0.1419977515334984
      3230                     0   -452.9450998159074     9.64826241649698    8.162505248352984    54.36612480910065   -10.03567473607518    6.950644922049395    1.671782770325481  0.03844455982897589   0.1432365879355164
      3240                     0   -452.9455576161753    9.647713651110811    8.162456075143417     54.3704572309775     49.7607902966509   -32.87689586206119    1.668197955890135  0.03830957738231986   0.1435775611930112
      3250                     0   -452.9459957431374    9.648815754797285    8.161526996970149    54.37452501570569   -111.0889655312814    100.4993530694464    1.681070447040911   0.0380242975776405   0.1499431275410801
      3260                     0   -452.9464138631889    9.647529715634283    8.162224757764193    54.37816987013097    47.64848544054772    -49.2620085007662     1.51528214256338   0.0378808032717868   0.1411773599699492
      3270                     0   -452.9467525595176    9.647925069893917    8.161586525701775    54.38130591940407   -14.05199038091421    24.42594524247502    1.693685071703016  0.03777834051966734   0.1410735497999029
      3280                     0   -452.9471083797508    9.647249866681962    8.162110302682235      54.384781185036    61.96102366213155   -78.37642520169273    1.367285543799913  0.03751409545878331   0.1488102437670056
      3290                     0   -452.9475402072932    9.647286277463605    8.161604242677212    54.38855843530285    46.46344548249566   -38.04802389988891     1.57235712197331  0.03742560547111823   0.1387297231177821
      3300                     0   -452.9479667135567    9.648183243959343    8.160692541109826    54.39258658466494   -86.10645914788766    83.65801623545667    1.681570889133475   0.0371973735913924   0.1438498977750235
      3310                     0   -452.9483375016212    9.647189646400959    8.161317252453003    54.39599496924311    33.36494381991351   -44.17813140660382    1.431475656443163  0.03699973194040164    0.141518984447543
      3320                     0   -452.9486990603747    9.648022387002204    8.160223657221602    54.39950537609591   -86.80930814015298    96.75334323986863    1.755679068076279  0.03691166301208845   0.1458965431790635
      3330                     0   -452.9490415233877    9.646804240332473    8.161194704118898    54.40271789984775    61.61225634084008   -78.36698132472009    1.321696274767151  0.03665303766683768   0.1461965273356499
      3340                     0   -452.9495339046165    9.647249059088114    8.160336609338261    54.40708150610918   -10.08133045901478    15.58048027079044    1.574787678500428  0.03652594480371022   0.1361698455443593
      3350                     0   -452.9499428687875    9.647506565276503    8.159974847745984    54.41097440959031   -58.05252430047965     49.3252374427708    1.566986372634075  0.03628603005156299   0.1392247027744564
      3360                     0   -452.9503105176314    9.646619444595428    8.160380834586492    54.41440215283515    48.17469555555728   -50.23955722650231    1.425011123892552  0.03614022548607525   0.1360963941127558
      3370                     0   -452.9506901966759    9.646425955055939    8.160119826174411    54.41809241605221    62.66328266212371   -47.24738024593839    1.494808471571386  0.03602448201880362   0.1361948877136643
      3380                     0   -452.9509988435505    9.647484004069018    8.159159348336576    54.42102550536076   -87.74070429763505    91.54558675790088    1.671675468268907  0.03584240172232722   0.1408377891770747
      3390                     0   -452.9513616372758    9.646107794957462     8.16015795701343    54.42459200048147    80.71681315230538   -95.21591017130623    1.271897744516958  0.03559270820416956   0.1441381711221827
      3400                     0   -452.9517788199767    9.646928592181462    8.159069699102378    54.42829744995615   -38.78935041663125     43.0804629494858    1.570172910533755  0.03548341689314299   0.1344941248501472
      3410                     0    -452.952236488095    9.647068868722016    8.158768339054287    54.43274669585411   -73.45572422972597    61.85209023725711     1.53781223175066  0.03520402607654904   0.1379464851359142
      3420                     0   -452.9525510040195    9.645656522160765    8.159658827254075    54.43595187243643    102.2343859601502   -113.1640407705022    1.229839265251513  0.03504135611986688   0.1429350988769886
      3430                     0   -452.9529395258881    9.646421761740227    8.158662949825565    54.43935195159916   -9.189868852400625    13.80517085068074    1.496556067911813  0.03493329854228795   0.1310401705067043
      3440                     0   -452.9533577026644    9.645854347856238    8.158967978485993    54.44355952591805    50.04139878252082   -64.31288326322341    1.287300070753912  0.03464880036246547    0.137978741761425
      3450                     0   -452.9537474688328    9.645212306033679    8.159115294086087     54.4474617783245      122.18655246583   -127.3206805740198    1.190240109658706  0.03448454267520763   0.1406508264588797
      3460                     0   -452.9541007479187    9.646382016156371    8.157792075129365    54.45061526911748   -41.30296185341904    57.63199350003907    1.750908413198919  0.03441937369842363   0.1324860720626873
      3470                     0   -452.9544516998951    9.645785826685056    8.158281327542451     54.4542157363496    22.34367970837418   -41.78922514410238    1.326437472964765  0.03409245202661554   0.1395618537726794
      3480                     0   -452.9549703109458    9.645720166566011    8.157794555744516    54.45899061904962    15.92098089726965   -17.18873010702577    1.248731644267181  0.03391231332926584    0.127322109952025
      3490                     0   -452.9552989604731    9.646299483551598    8.157139619619455    54.46227556415539   -72.06316532931302    66.61571617312447    1.505033656567946  0.03373634006478757   0.1319019164382304
      3500                     0   -452.9556227580656     9.64528209930163    8.157767944842366    54.46551024007857    50.53030033166957   -62.45690351753733    1.247724769230827  0.03354102077579053   0.1330286541059826
[...]
Histogram: 1 0 0 0 0 0 0 0 0 0
FullNghs:        21882 ave       21882 max       21882 min
Histogram: 1 0 0 0 0 0 0 0 0 0

Total # of neighbors = 21882
Ave neighs/atom = 352.93548
Neighbor list builds = 0
Dangerous builds = 0

# Minimize the with fire
  unfix           frb
  min_style       fire
  minimize        0.0 1.0e-3 10000 10000
  Parameters for fire:
    dmax  delaystep dtgrow dtshrink alpha0 alphashrink tmax tmin   integrator   halfstepback   abcfire  
     0.1     20      1.1     0.5     0.25     0.99      10  0.02 eulerimplicit      yes          no     
Per MPI rank memory allocation (min/avg/max) = 3.92 | 3.92 | 3.92 Mbytes
   Step          Temp          PotEng           Lx             Ly             Lz            Pxx            Pyy            Pzz            Fmax          Fnorm     
     10111                     0   -452.9898716171837    9.626413713511059    8.112814233733356    55.13191878709635  0.02700648259391156  0.02927798223813171 -8.169177021447275e-05 3.862119527935898e-05 0.0001310155098432385
     10112  8.743858273690395e-10   -452.9898716171935    9.626413713511059    8.112814233733356    55.13191878709635  0.02629605317963706  0.02938128434860689 -6.355009237225331e-05 3.858599960514189e-05 0.0001306626930804147
Loop time of 0.0268965 on 1 procs for 1 steps with 62 atoms

10.4% CPU use with 1 MPI tasks x no OpenMP threads

Minimization stats:
  Stopping criterion = force tolerance
  Energy initial, next-to-last, final = 
     -452.989871617184  -452.989871617184  -452.989871617194
  Force two-norm initial, final = 0.00013101551 0.00013066269
  Force max component initial, final = 3.8621195e-05 3.8586e-05
  Final line search alpha, max atom move = 0 0
  Iterations, force evaluations = 1 2

MPI task timing breakdown:
Section |  min time  |  avg time  |  max time  |%varavg| %total
---------------------------------------------------------------
Pair    | 0.0026321  | 0.0026321  | 0.0026321  |   0.0 |  9.79
Neigh   | 0          | 0          | 0          |   0.0 |  0.00
Comm    | 1.045e-05  | 1.045e-05  | 1.045e-05  |   0.0 |  0.04
Output  | 0          | 0          | 0          |   0.0 |  0.00
Modify  | 0          | 0          | 0          |   0.0 |  0.00
Other   |            | 0.02425    |            |       | 90.18

Nlocal:             62 ave          62 max          62 min
Histogram: 1 0 0 0 0 0 0 0 0 0
Nghost:            938 ave         938 max         938 min
Histogram: 1 0 0 0 0 0 0 0 0 0
Neighs:              0 ave           0 max           0 min
Histogram: 1 0 0 0 0 0 0 0 0 0
FullNghs:        21882 ave       21882 max       21882 min
Histogram: 1 0 0 0 0 0 0 0 0 0

Total # of neighbors = 21882
Ave neighs/atom = 352.93548
Neighbor list builds = 0
Dangerous builds = 0

next nr
jump ${simname}.in loopmin
jump AIREBO.in loopmin

# Minimize the with cg + box/relax
  fix             frb all box/relax tri 0.0 couple none
  min_style       cg
  min_modify      line quadratic
  minimize        0.0 1.0e-3 10000 10000
WARNING: Energy due to 6 extra global DOFs will be included in minimizer energies
 (src/min.cpp:225)
Per MPI rank memory allocation (min/avg/max) = 5.045 | 5.045 | 5.045 Mbytes
   Step          Temp          PotEng           Lx             Ly             Lz            Pxx            Pyy            Pzz            Fmax          Fnorm     
     10112  8.743858273690395e-10   -452.9898716171936    9.626413713511059    8.112814233733356    55.13191878709635  0.02629605285863516  0.02938128457396475 -6.355013602433164e-05 3.858599964943976e-05 0.0001306626930689238
     10113  8.743858273690395e-10   -452.9898716172021    9.626414093060335    8.112814591134049    55.13191878184268 -0.03112039373292128 -0.03393583901405637 -0.004554939806232776 3.767145056158374e-05 0.0001291756417177729
Loop time of 0.00292283 on 1 procs for 1 steps with 62 atoms

90.6% CPU use with 1 MPI tasks x no OpenMP threads

Minimization stats:
  Stopping criterion = force tolerance
  Energy initial, next-to-last, final = 
     -452.989871617194  -452.989871617194  -452.989871617202
  Force two-norm initial, final = 0.00017891058 0.00019378879
  Force max component initial, final = 7.8958625e-05 9.1198442e-05
  Final line search alpha, max atom move = 1 9.1198442e-05
  Iterations, force evaluations = 1 2

MPI task timing breakdown:
Section |  min time  |  avg time  |  max time  |%varavg| %total
---------------------------------------------------------------
Pair    | 0.0024905  | 0.0024905  | 0.0024905  |   0.0 | 85.21
Neigh   | 0          | 0          | 0          |   0.0 |  0.00
Comm    | 1.2533e-05 | 1.2533e-05 | 1.2533e-05 |   0.0 |  0.43
Output  | 0          | 0          | 0          |   0.0 |  0.00
Modify  | 0          | 0          | 0          |   0.0 |  0.00
Other   |            | 0.0004198  |            |       | 14.36

Nlocal:             62 ave          62 max          62 min
Histogram: 1 0 0 0 0 0 0 0 0 0
Nghost:            938 ave         938 max         938 min
Histogram: 1 0 0 0 0 0 0 0 0 0
Neighs:              0 ave           0 max           0 min
Histogram: 1 0 0 0 0 0 0 0 0 0
FullNghs:        21882 ave       21882 max       21882 min
Histogram: 1 0 0 0 0 0 0 0 0 0

Total # of neighbors = 21882
Ave neighs/atom = 352.93548
Neighbor list builds = 0
Dangerous builds = 0

# Minimize the with fire
  unfix           frb
  min_style       fire
  minimize        0.0 1.0e-3 10000 10000
  Parameters for fire:
    dmax  delaystep dtgrow dtshrink alpha0 alphashrink tmax tmin   integrator   halfstepback   abcfire  
     0.1     20      1.1     0.5     0.25     0.99      10  0.02 eulerimplicit      yes          no     
Per MPI rank memory allocation (min/avg/max) = 3.92 | 3.92 | 3.92 Mbytes
   Step          Temp          PotEng           Lx             Ly             Lz            Pxx            Pyy            Pzz            Fmax          Fnorm     
     10113                     0   -452.9898716172018    9.626414093060335    8.112814591134049    55.13191878184268 -0.03112039418481615 -0.03393583927606854 -0.004554944192244063 3.767145037223517e-05 0.000129175641761378
     10114  8.500000336704552e-10   -452.9898716172195    9.626414093060335    8.112814591134049    55.13191878184268 -0.03154527273470076 -0.03391144978119202 -0.004554689429065319 3.766729447129041e-05 0.0001288470423218438
Loop time of 0.0028829 on 1 procs for 1 steps with 62 atoms

89.7% CPU use with 1 MPI tasks x no OpenMP threads

Minimization stats:
  Stopping criterion = force tolerance
  Energy initial, next-to-last, final = 
     -452.989871617202  -452.989871617202   -452.98987161722
  Force two-norm initial, final = 0.00012917564 0.00012884704
  Force max component initial, final = 3.767145e-05 3.7667294e-05
  Final line search alpha, max atom move = 0 0
  Iterations, force evaluations = 1 2

MPI task timing breakdown:
Section |  min time  |  avg time  |  max time  |%varavg| %total
---------------------------------------------------------------
Pair    | 0.002438   | 0.002438   | 0.002438   |   0.0 | 84.57
Neigh   | 0          | 0          | 0          |   0.0 |  0.00
Comm    | 1.706e-05  | 1.706e-05  | 1.706e-05  |   0.0 |  0.59
Output  | 0          | 0          | 0          |   0.0 |  0.00
Modify  | 0          | 0          | 0          |   0.0 |  0.00
Other   |            | 0.0004279  |            |       | 14.84

Nlocal:             62 ave          62 max          62 min
Histogram: 1 0 0 0 0 0 0 0 0 0
Nghost:            938 ave         938 max         938 min
Histogram: 1 0 0 0 0 0 0 0 0 0
Neighs:              0 ave           0 max           0 min
Histogram: 1 0 0 0 0 0 0 0 0 0
FullNghs:        21882 ave       21882 max       21882 min
Histogram: 1 0 0 0 0 0 0 0 0 0

Total # of neighbors = 21882
Ave neighs/atom = 352.93548
Neighbor list builds = 0
Dangerous builds = 0

next nr
jump ${simname}.in loopmin
jump AIREBO.in loopmin

# Minimize the with cg + box/relax
  fix             frb all box/relax tri 0.0 couple none
  min_style       cg
  min_modify      line quadratic
  minimize        0.0 1.0e-3 10000 10000
WARNING: Energy due to 6 extra global DOFs will be included in minimizer energies
 (src/min.cpp:225)
Per MPI rank memory allocation (min/avg/max) = 5.045 | 5.045 | 5.045 Mbytes
   Step          Temp          PotEng           Lx             Ly             Lz            Pxx            Pyy            Pzz            Fmax          Fnorm     
     10114  8.500000336704552e-10   -452.9898716172195    9.626414093060335    8.112814591134049    55.13191878184268 -0.03154527296220606 -0.03391144952217207 -0.00455468946290678 3.766729446157599e-05 0.0001288470423434438
     10115  8.500000336704552e-10   -452.9898716172307    9.626413708862509    8.112814243058127    55.13191846414184  0.02605746997112049  0.02828924893748191 0.0002405924157145953 3.859276492782041e-05 0.0001301215448259485
Loop time of 0.00258747 on 1 procs for 1 steps with 62 atoms

90.0% CPU use with 1 MPI tasks x no OpenMP threads

Minimization stats:
  Stopping criterion = force tolerance
  Energy initial, next-to-last, final = 
      -452.98987161722   -452.98987161722  -452.989871617231
  Force two-norm initial, final = 0.0001939754 0.00017735722
  Force max component initial, final = 9.1132902e-05 7.6023915e-05
  Final line search alpha, max atom move = 1 7.6023915e-05
  Iterations, force evaluations = 1 2

MPI task timing breakdown:
Section |  min time  |  avg time  |  max time  |%varavg| %total
---------------------------------------------------------------
Pair    | 0.0021907  | 0.0021907  | 0.0021907  |   0.0 | 84.67
Neigh   | 0          | 0          | 0          |   0.0 |  0.00
Comm    | 9.412e-06  | 9.412e-06  | 9.412e-06  |   0.0 |  0.36
Output  | 0          | 0          | 0          |   0.0 |  0.00
Modify  | 0          | 0          | 0          |   0.0 |  0.00
Other   |            | 0.0003874  |            |       | 14.97

Nlocal:             62 ave          62 max          62 min
Histogram: 1 0 0 0 0 0 0 0 0 0
Nghost:            938 ave         938 max         938 min
Histogram: 1 0 0 0 0 0 0 0 0 0
Neighs:              0 ave           0 max           0 min
Histogram: 1 0 0 0 0 0 0 0 0 0
FullNghs:        21882 ave       21882 max       21882 min
Histogram: 1 0 0 0 0 0 0 0 0 0

Total # of neighbors = 21882
Ave neighs/atom = 352.93548
Neighbor list builds = 0
Dangerous builds = 0

# Minimize the with fire
  unfix           frb
  min_style       fire
  minimize        0.0 1.0e-3 10000 10000
  Parameters for fire:
    dmax  delaystep dtgrow dtshrink alpha0 alphashrink tmax tmin   integrator   halfstepback   abcfire  
     0.1     20      1.1     0.5     0.25     0.99      10  0.02 eulerimplicit      yes          no     
Per MPI rank memory allocation (min/avg/max) = 3.92 | 3.92 | 3.92 Mbytes
   Step          Temp          PotEng           Lx             Ly             Lz            Pxx            Pyy            Pzz            Fmax          Fnorm     
     10115                     0   -452.9898716172308    9.626413708862509    8.112814243058127    55.13191846414184  0.02605746970474678  0.02828924867768273 0.0002405881972824614 3.859276497811355e-05 0.0001301215448463148
     10116  8.624940518435933e-10   -452.9898716172447    9.626413708862509    8.112814243058127    55.13191846414184  0.02536298361134313  0.02836451180695643 0.0002620765807562135 3.855922668470781e-05 0.0001297945540285717
Loop time of 0.0025102 on 1 procs for 1 steps with 62 atoms

90.0% CPU use with 1 MPI tasks x no OpenMP threads

Minimization stats:
  Stopping criterion = force tolerance
  Energy initial, next-to-last, final = 
     -452.989871617231  -452.989871617231  -452.989871617245
  Force two-norm initial, final = 0.00013012154 0.00012979455
  Force max component initial, final = 3.8592765e-05 3.8559227e-05
  Final line search alpha, max atom move = 0 0
  Iterations, force evaluations = 1 2

MPI task timing breakdown:
Section |  min time  |  avg time  |  max time  |%varavg| %total
---------------------------------------------------------------
Pair    | 0.0021577  | 0.0021577  | 0.0021577  |   0.0 | 85.96
Neigh   | 0          | 0          | 0          |   0.0 |  0.00
Comm    | 1.0096e-05 | 1.0096e-05 | 1.0096e-05 |   0.0 |  0.40
Output  | 0          | 0          | 0          |   0.0 |  0.00
Modify  | 0          | 0          | 0          |   0.0 |  0.00
Other   |            | 0.0003424  |            |       | 13.64

Nlocal:             62 ave          62 max          62 min
Histogram: 1 0 0 0 0 0 0 0 0 0
Nghost:            938 ave         938 max         938 min
Histogram: 1 0 0 0 0 0 0 0 0 0
Neighs:              0 ave           0 max           0 min
Histogram: 1 0 0 0 0 0 0 0 0 0
FullNghs:        21882 ave       21882 max       21882 min
Histogram: 1 0 0 0 0 0 0 0 0 0

Total # of neighbors = 21882
Ave neighs/atom = 352.93548
Neighbor list builds = 0
Dangerous builds = 0

next nr
jump ${simname}.in loopmin
jump AIREBO.in loopmin

# Minimize the with cg + box/relax
  fix             frb all box/relax tri 0.0 couple none
  min_style       cg
  min_modify      line quadratic
  minimize        0.0 1.0e-3 10000 10000
Per MPI rank memory allocation (min/avg/max) = 5.045 | 5.045 | 5.045 Mbytes
   Step          Temp          PotEng           Lx             Ly             Lz            Pxx            Pyy            Pzz            Fmax          Fnorm     
WARNING: Too many warnings: 101 vs 100. All future warnings will be suppressed (src/thermo.cpp:472)
     10116  8.624940518435933e-10   -452.9898716172447    9.626413708862509    8.112814243058127    55.13191846414184  0.02536298342877457  0.02836451186454307 0.0002620765797456418 3.855922673039348e-05 0.0001297945540486057
     10117  8.624940518435933e-10   -452.9898716172506    9.626414086475267    8.112814598958662    55.13191848648815 -0.03179152014000856 -0.03472813570486123 -0.004228218194743657 3.764996097104885e-05 0.0001283024456299067
Loop time of 0.00289254 on 1 procs for 1 steps with 62 atoms

79.4% CPU use with 1 MPI tasks x no OpenMP threads

Minimization stats:
  Stopping criterion = force tolerance
  Energy initial, next-to-last, final = 
     -452.989871617245  -452.989871617245  -452.989871617251
  Force two-norm initial, final = 0.00017538316 0.00019545249
  Force max component initial, final = 7.6226172e-05 9.3327642e-05
  Final line search alpha, max atom move = 1 9.3327642e-05
  Iterations, force evaluations = 1 2

MPI task timing breakdown:
Section |  min time  |  avg time  |  max time  |%varavg| %total
---------------------------------------------------------------
Pair    | 0.002158   | 0.002158   | 0.002158   |   0.0 | 74.61
Neigh   | 0          | 0          | 0          |   0.0 |  0.00
Comm    | 9.247e-06  | 9.247e-06  | 9.247e-06  |   0.0 |  0.32
Output  | 0          | 0          | 0          |   0.0 |  0.00
Modify  | 0          | 0          | 0          |   0.0 |  0.00
Other   |            | 0.0007253  |            |       | 25.07

Nlocal:             62 ave          62 max          62 min
Histogram: 1 0 0 0 0 0 0 0 0 0
Nghost:            938 ave         938 max         938 min
Histogram: 1 0 0 0 0 0 0 0 0 0
Neighs:              0 ave           0 max           0 min
Histogram: 1 0 0 0 0 0 0 0 0 0
FullNghs:        21882 ave       21882 max       21882 min
Histogram: 1 0 0 0 0 0 0 0 0 0

Total # of neighbors = 21882
Ave neighs/atom = 352.93548
Neighbor list builds = 0
Dangerous builds = 0

# Minimize the with fire
  unfix           frb
  min_style       fire
  minimize        0.0 1.0e-3 10000 10000
  Parameters for fire:
    dmax  delaystep dtgrow dtshrink alpha0 alphashrink tmax tmin   integrator   halfstepback   abcfire  
     0.1     20      1.1     0.5     0.25     0.99      10  0.02 eulerimplicit      yes          no     
Per MPI rank memory allocation (min/avg/max) = 3.92 | 3.92 | 3.92 Mbytes
   Step          Temp          PotEng           Lx             Ly             Lz            Pxx            Pyy            Pzz            Fmax          Fnorm     
     10117                     0   -452.9898716172505    9.626414086475267    8.112814598958662    55.13191848648815  -0.0317915203985094  -0.0347281363209988 -0.004228222634748191 3.764996096094578e-05 0.0001283024455828392
     10118  8.385472834252137e-10   -452.9898716172644    9.626414086475267    8.112814598958662    55.13191848648815 -0.03220432425504381 -0.03472859309208088 -0.004224692151326572 3.764711878342553e-05 0.0001279983639882983
Loop time of 0.00244567 on 1 procs for 1 steps with 62 atoms

89.9% CPU use with 1 MPI tasks x no OpenMP threads

Minimization stats:
  Stopping criterion = force tolerance
  Energy initial, next-to-last, final = 
     -452.989871617251  -452.989871617251  -452.989871617264
  Force two-norm initial, final = 0.00012830245 0.00012799836
  Force max component initial, final = 3.7649961e-05 3.7647119e-05
  Final line search alpha, max atom move = 0 0
  Iterations, force evaluations = 1 2

MPI task timing breakdown:
Section |  min time  |  avg time  |  max time  |%varavg| %total
---------------------------------------------------------------
Pair    | 0.0020904  | 0.0020904  | 0.0020904  |   0.0 | 85.47
Neigh   | 0          | 0          | 0          |   0.0 |  0.00
Comm    | 1.0293e-05 | 1.0293e-05 | 1.0293e-05 |   0.0 |  0.42
Output  | 0          | 0          | 0          |   0.0 |  0.00
Modify  | 0          | 0          | 0          |   0.0 |  0.00
Other   |            | 0.0003449  |            |       | 14.10

Nlocal:             62 ave          62 max          62 min
Histogram: 1 0 0 0 0 0 0 0 0 0
Nghost:            938 ave         938 max         938 min
Histogram: 1 0 0 0 0 0 0 0 0 0
Neighs:              0 ave           0 max           0 min
Histogram: 1 0 0 0 0 0 0 0 0 0
FullNghs:        21882 ave       21882 max       21882 min
Histogram: 1 0 0 0 0 0 0 0 0 0

Total # of neighbors = 21882
Ave neighs/atom = 352.93548
Neighbor list builds = 0
Dangerous builds = 0

next nr
jump ${simname}.in loopmin
jump AIREBO.in loopmin

variable        energy equal pe
fix             output all ave/time 1 1 1 v_energy file ${simname}_energy.data
fix             output all ave/time 1 1 1 v_energy file AIREBO_energy.data
dump            dump1 all custom 1 ${simname}.lammpstrj id type x y z fx fy fz
dump            dump1 all custom 1 AIREBO.lammpstrj id type x y z fx fy fz
dump_modify     dump1 sort id

fix             nve all nve
run             0
Per MPI rank memory allocation (min/avg/max) = 3.92 | 3.92 | 3.92 Mbytes
   Step          Temp          PotEng           Lx             Ly             Lz            Pxx            Pyy            Pzz            Fmax          Fnorm     
     10118  8.385472834252137e-10   -452.9898716172648    9.626414086475267    8.112814598958662    55.13191848648815 -0.03220432465294346 -0.03472859317677327 -0.00422469221907973 3.76471187894762e-05 0.0001279983639757057
Loop time of 7.08e-07 on 1 procs for 0 steps with 62 atoms

706.2% CPU use with 1 MPI tasks x no OpenMP threads

MPI task timing breakdown:
Section |  min time  |  avg time  |  max time  |%varavg| %total
---------------------------------------------------------------
Pair    | 0          | 0          | 0          |   0.0 |  0.00
Neigh   | 0          | 0          | 0          |   0.0 |  0.00
Comm    | 0          | 0          | 0          |   0.0 |  0.00
Output  | 0          | 0          | 0          |   0.0 |  0.00
Modify  | 0          | 0          | 0          |   0.0 |  0.00
Other   |            | 7.08e-07   |            |       |100.00

Nlocal:             62 ave          62 max          62 min
Histogram: 1 0 0 0 0 0 0 0 0 0
Nghost:            938 ave         938 max         938 min
Histogram: 1 0 0 0 0 0 0 0 0 0
Neighs:              0 ave           0 max           0 min
Histogram: 1 0 0 0 0 0 0 0 0 0
FullNghs:        21882 ave       21882 max       21882 min
Histogram: 1 0 0 0 0 0 0 0 0 0

Total # of neighbors = 21882
Ave neighs/atom = 352.93548
Neighbor list builds = 0
Dangerous builds = 0
Total wall time: 0:00:15
