units           metal
atom_style      atomic
boundary        p p p
processors		  * * 1
read_data		    AB1.data
Reading data file ...
  triclinic box = (0 0 0) to (9.8329752 8.3524793 49.95895) with tilt (5.1889168 -0.12492273 -0.078983728)
WARNING: Triclinic box skew is large. LAMMPS will run inefficiently. (src/domain.cpp:220)
  1 by 1 by 1 MPI processor grid
  reading atoms ...
  62 atoms
  read_data CPU = 0.004 seconds
mass            1 12.011

# Define potentials
pair_style      lcbop
pair_coeff      * * C.lcbop C
Reading potential file C.lcbop with DATE: 2012-05-22


# Variable
variable        thermofrq equal 10
variable        Nloop equal 100     # number of loop to run
variable        binding equal pe


# Output
thermo          ${thermofrq}
thermo          10
thermo_style    custom step temp pe lx ly lz pxx pyy pzz fmax fnorm
thermo_modify   line one format float %20.16g
thermo_modify   flush yes norm no lost warn

# Minimize the system in loops
timestep        1.0e-3
variable        nr loop ${Nloop}
variable        nr loop 100
label           loopmin

# Minimize the with cg + box/relax
  fix             frb all box/relax tri 0.0 couple none
  min_style       cg
  min_modify      line quadratic
  minimize        0.0 1.0e-3 10000 10000
Neighbor list info ...
  update: every = 1 steps, delay = 0 steps, check = yes
  max neighbors/atom: 2000, page size: 100000
  master list distance cutoff = 8.6
  ghost atom cutoff = 8.6
  binsize = 4.3, bins = 4 2 12
  1 neighbor lists, perpetual/occasional/extra = 1 0 0
  (1) pair lcbop, perpetual
      attributes: full, newton on, ghost
      pair build: full/bin/ghost
      stencil: full/ghost/bin/3d
      bin: standard
WARNING: Energy due to 6 extra global DOFs will be included in minimizer energies
 (src/min.cpp:225)
Per MPI rank memory allocation (min/avg/max) = 5.162 | 5.162 | 5.162 Mbytes
   Step          Temp          PotEng           Lx             Ly             Lz            Pxx            Pyy            Pzz            Fmax          Fnorm     
         0                     0   -447.7119850882281         9.8329751589    8.352479281900001        49.9589495942    1050.373563693246   -1263.259749679677     532.523049966794     2.57015362737535    8.788849114953891
        10                     0   -447.7338616450579    9.837103299824101    8.348248325589857     49.9729045386899    500.2223765980933   -608.8952335722018    491.4133239009946    2.430853595263367    8.472314589561105
        20                     0   -447.7628268242488    9.839782915271742    8.345379183317243    49.99513832791233     104.587750707867   -151.7896251815637    428.0649497756495    2.224919204282404    8.021313652122927
        30                     0   -447.8215282368107    9.839789840326253    8.344591657768582    50.04200507434129   -40.16840955138069    7.520533456449376    300.9659649978099    1.812581393257465    7.122253159587135
        40                     0   -447.8937868181749    9.838211426165225    8.344881171648707     50.0919640239355   -33.24123221755124    7.440800589316975    170.2631269944791    1.339300615666349    6.013218370097479
        50                     0   -447.9971808295785    9.835594915222753     8.34540751176783     50.1419229735297    -20.1118253033692    5.000842661832605    44.82201986928121   0.8217487166719062    4.279979058085121
        60                     0   -448.1037438349113    9.832566882838316    8.346543883033762    50.17499502960989   -99.36719052414443   -101.2229614945853    27.16620306954586   0.4724658680300646    2.278647042019077
        70                     0   -448.1284783216203    9.831464588587632    8.346543883033762    50.20263413972977   -103.3815355944361    -113.092030838587    42.23511707875597    0.391087823665652    1.848466229940054
        80                     0   -448.1455494806876    9.830489539619764    8.346283788664632    50.23953971447679   -89.96680304668773   -99.91050527096401    52.06882740102557   0.3424098419729822    1.575880387103841
        90                     0    -448.158160404642    9.829649460985452    8.345936546081901    50.28081114514336   -72.57112600540609   -81.15993707017785    56.88735713981026   0.3093886993324638    1.385407545442977
       100                     0   -448.1683543933062    9.829040863509046    8.345697803681281    50.32521815900293   -78.40738376346442   -88.96205546580934    57.60751678786283    0.291353921057398    1.234798922654866
       110                     0   -448.1768175159332    9.828392136936168    8.345337634380662    50.37084554574621   -67.25135901814413   -76.66036253547522    56.75090038770258   0.2734963987032457    1.110942784002638
       120                     0   -448.1840757407509    9.827901809415708    8.345080815244996    50.41730756478879   -74.18142488085918   -85.29157606964614    53.95826698268543   0.2557841103051471    1.004332943672495
       130                     0   -448.1903544376406    9.827371981007516    8.344744024783939     50.4635470123516   -68.39521290617013   -78.92900266969794    50.84494768727517   0.2383310038264825   0.9123242173711856
       140                     0    -448.195895499229    9.826932037733462     8.34446739920015    50.50956921633691   -72.20034830405712   -83.70979292667394    47.00046038745913   0.2210914548302326   0.8311924145568801
       150                     0   -448.2008473859298    9.826482631541545    8.344158585192458     50.5551273238887   -70.52655443024899   -82.00927838024111    43.16707410829863   0.2040459636536477   0.7594821087787473
       160                     0   -448.2053364270358    9.826070342962575    8.343868951611858    50.60027158763395   -71.64287294547997   -83.53507804844584    39.19494577079526   0.1871690783022553   0.6954774835321537
       170                     0    -448.209463751213    9.825665890204982    8.343572768275713    50.64506314425645   -71.55804594990116   -83.61435566185891    35.29760950319179    0.171160569944961   0.6380338608754045
       180                     0   -448.2132785269413     9.82524637573894    8.343248844298369    50.68918933248841   -66.66144142057823   -78.00219129968701    31.67450473155361   0.1582613387282112   0.5866331151670802
       190                     0   -448.2167464155156    9.824846167826964    8.342931175991417    50.73142643644488   -61.16133288759136    -71.6441887658696    28.31203743580212   0.1460202113125711   0.5415678311965194
       200                     0   -448.2195998030894     9.82440985314982    8.342558997950686    50.76739564621392   -40.78980541352467   -47.73947892294519    26.06310003359298   0.1356577261079334   0.5061784016046567
       210                     0   -448.2221924335193    9.824097532791935    8.342302221635782    50.80095401308373   -36.60711802456397    -42.8696768170916     23.5229085628002    0.126069485913359   0.4748862469931021
       220                     0   -448.2244717183845    9.823962701238989    8.342214095296923    50.83098662093121   -55.79278293815287   -65.50423752108048    20.52133764473168   0.1175713997159314   0.4479465329310076
       230                     0   -448.2265080566083     9.82381040128938    8.342101776029683    50.85799560566976   -68.29909685229818   -80.26849595916977    18.03633076134245   0.1099790678597942   0.4247851701793015
       240                     0   -448.2283593783782    9.823433293184848    8.341759286521828    50.88237028190548   -41.96744199863458    -49.2797081650041    17.13978020042191   0.1031402887810343   0.4050282017090844
       250                     0   -448.2300430103361    9.823151503157778    8.341508114986995    50.90449778123187   -28.05111562134082    -32.9060456575038     16.0192954621634  0.09698895365524585   0.3874707666576463
       260                     0   -448.2315880769497    9.822973287460096    8.341357366100548    50.92466060671325   -28.26006526846677   -33.16309839612929    14.58300922436488  0.09421552286620086      0.3716611835445
       270                     0   -448.2330131218571    9.822952251864193    8.341361368933354    50.94310227623123   -51.39502903222154   -60.42543574475084    12.49785659725155   0.0929654883643373    0.357197183215832
       280                     0   -448.2343461051271    9.822763317154793    8.341195210291191    50.95997117072961    -46.2711017106453   -54.39733218521233    11.52864267102538  0.09179809164592787   0.3444739139973014
       290                     0   -448.2355962110185    9.822508499763297    8.340961371523649    50.97545225656323    -29.2716132039768   -34.38006815277644    11.08920747669101  0.09065654068432334   0.3330804720312193
       300                     0   -448.2367696458367    9.822330256933876    8.340802692389822    50.98971235586139   -23.11519350884996   -27.13248766593281    10.37169275457052   0.0894461451163668   0.3225834548696076
       310                     0   -448.2378754982147     9.82226827659635    8.340759092604843    51.00288372567374    -34.2207364389998   -40.21440656359256    9.138218549254461  0.08814423905675391   0.3127658563236089
       320                     0   -448.2389237056898    9.822204604550695    8.340712694106706    51.01505940852009   -44.06135749128496   -51.80514980002769    8.026591903779256  0.08684708734859793   0.3037653333043458
       330                     0    -448.239925426191    9.822016396067358    8.340540707336926    51.02631539258675   -33.33830807487146   -39.17982842739508    7.706311608632026  0.08565611011689933   0.2956882775160014
       340                     0   -448.2408809120091    9.821845743020511    8.340385404313515    51.03675949260904   -24.60554360469606   -28.89944071242807    7.378664513874019  0.08446554714375827   0.2882131107945546
       350                     0   -448.2417945275675    9.821727086659461    8.340281302129194    51.04647223110423    -23.3834304048461   -27.46217575558438    6.842454241050146  0.08325049137108617   0.2812022409288107
       360                     0   -448.2426696736104    9.821689726514332    8.340257759908555    51.05552519194663   -34.36539981099762   -40.39279367590623    5.925712083020749  0.08198849728909714   0.2745474011815613
       370                     0    -448.243512922787     9.82160618558046    8.340187289972931     51.0639570554767   -37.47638264034248   -44.05561643454332    5.330576308280973  0.08078251226773962   0.2684356320805814
       380                     0   -448.2443285739265    9.821445451577642    8.340038915755784    51.07181568158859   -27.87824502430852   -32.75798229682947    5.224433926314168  0.07965967786154866   0.2628684902338347
       390                     0   -448.2451106911541    9.821480407237937    8.340085658718575    51.07918377471429   -48.68878085600874   -57.26658641065045    4.081084123302733   0.0783986818759559   0.2573602158583462
       400                     0   -448.2458778978514    9.821208332714759    8.339824491174401    51.08603889833802   -20.60781882812026   -24.19997249249244    4.699093761044428  0.07741115609820834   0.2526955780221524
       410                     0   -448.2466176796892    9.821084697993042    8.339711278137996    51.09248975758143   -15.56802256308091   -18.27327806424268    4.532521371612492  0.07632379933071341   0.2481067993165252
       420                     0   -448.2473339609005    9.821103625683135    8.339739963427407    51.09856944310007   -32.66515126399992   -38.39384650589059    3.608947240748428  0.07513903325824026   0.2435400494278117
       430                     0   -448.2480327286822    9.821041644285323    8.339687119502214    51.10427217945458    -36.6596606925753   -43.09408636121984    3.174081104466962  0.07404305566828968   0.2393969396720659
       440                     0   -448.2487169436524    9.820872370442302    8.339526402345957    51.10962190750057   -23.42296595811385     -27.520210206929    3.373400992504582  0.07305949207392626   0.2356862228835492
       450                     0   -448.2493835441077    9.820751074086099    8.339413042627193    51.11467121002951   -17.47517491842102    -20.5234886371401    3.335384898437352  0.07205730974406663   0.2321301208605555
       460                     0   -448.2500342296934    9.820692459845418    8.339361744004336    51.11944587214444   -21.15876663830309   -24.85739391826948    2.972972598593398  0.07102281194298157   0.2286670046516129
       470                     0   -448.2506694344652     9.82070109589641    8.339377060456215     51.1239682700578   -35.20944004144734   -41.38535126221714    2.258403380063152  0.06995073704065825   0.2252875488510945
       480                     0     -448.25129464877    9.820604989975624    8.339287078468328    51.12822879265792   -32.51722260868669   -38.21814670141151    2.156702324625352  0.06898991573754006   0.2222799759973413
       490                     0   -448.2519094278199    9.820449910267223    8.339137564341721    51.13225498308454   -20.31998280655151   -23.87348184560484    2.409419585251031  0.06810163673453437   0.2195591184364755
       500                     0   -448.2525121548933    9.820336869940689    8.339029461818578    51.13608156593567   -14.56232472360284   -17.10356720336155    2.446845372166387   0.0671973326878699   0.2169332458319862
       510                     0   -448.2531034812678    9.820311363622713    8.339008217550539    51.13973216457362   -22.43102779961687   -26.35721832203286    2.010548308963565  0.06623559291102608   0.2142833524858765
       520                     0   -448.2536837713587    9.820334659649619    8.339035135146759    51.14321459545316   -37.83046408867869   -44.46282042619519    1.315299989095625  0.06524936760103378   0.2117022809381715
       530                     0    -448.254259808647    9.820197107388301    8.338900760974338       51.14650535227   -27.72046694597509    -32.5759296289854     1.54338967758642   0.0644263695046846   0.2095414245650765
       540                     0   -448.2548273940527    9.820054609039325    8.338760857985607    51.14964420115912   -16.69079091863146   -19.61077236490913    1.814463640431868  0.06362774201232893   0.2075357246750468
       550                     0   -448.2553866187201      9.8199514992048    8.338659699833315    51.15265014421299    -11.7399631801943   -13.79221407098458    1.878027538969927  0.06281290475118512   0.2055795585108624
       560                     0   -448.2559355816807    9.820028331125441    8.338737656005906    51.15555882374118   -35.03031776327187   -41.16746825404518   0.9376606604819714  0.06185226801919287   0.2033723791614342
       570                     0   -448.2564822551867    9.819919552213834    8.338629640722262    51.15831659594069    -28.9531664930801   -34.02433272777765    1.058339670055216  0.06107947937650508   0.2016344748924622
       580                     0   -448.2569611763461    9.820168742524785    8.338878513932425    51.16080145160263   -78.22913392248461   -91.93210752751483  -0.7942109964851547  0.06006712470481353   0.1996633193839174
       590                     0    -448.257382033018    9.819400806514636     8.33811136473671    51.16263224493783    34.51431129916661    40.55432308986454    3.193988349913867  0.06014051445997694   0.1999049088235398
       600                     0   -448.2577947165705    9.820046518644522    8.338755938684464    51.16475710788605   -75.91185205625382   -89.28524465942577  -0.8418122501530683  0.05887675505442017   0.1971814354287434
       610                     0   -448.2582062856792    9.819292720672161    8.338001318771266    51.16647081405295    34.76553236119599    40.89536809971705     3.08741470230277  0.05896745421138516   0.1975481822624835
       620                     0   -448.2586104531948    9.819921926051585    8.338642309338496    51.16847150642994   -73.14370125462567   -87.91068952999414  -0.8871211596844271     0.05773486918422   0.1949167655927291
       630                     0   -448.2590136664298    9.819190539521554    8.337886720654701    51.17008308710385    34.57425535350966    41.99875984942624     3.00124400326624  0.05784322646586344   0.1954051748570947
       640                     0   -448.2594134399617    9.819627889542264    8.338566087459041    51.17196154936715   -47.43373765473468   -89.02766764867376  -0.5821501708273966  0.05671376640912323   0.1928955901240437
       650                     0     -448.25984353489    9.819534121197528    8.337690999026202    51.17369602780956   -26.14542559654396    46.29605993237863    1.980138775936863  0.05651510317324488   0.1932146957594952
       660                     0   -448.2602677655441    9.818783889563942    8.338360260614508    51.17552885400315    55.42197415017171   -59.22175390043971    1.518004760465568   0.0559696438655308   0.1932640405303139
       670                     0    -448.260687620937    9.819497202242083    8.337610995224278    51.17722037919876   -36.91381240646366    38.83550374861799    1.593176448349056  0.05534020979151384   0.1912798410625188
       680                     0   -448.2610995129509      9.8187168429404    8.338210390719818    51.17891774451019    50.45021328559433   -54.34447298985275    1.440735887745916  0.05510636648718394   0.1911853212361314
       690                     0    -448.261510215338     9.81942147829602    8.337467899353792    51.18053456226802   -40.70763837149606    42.83058584884364    1.523181427962427  0.05508879852647196   0.1896841124057895
       700                     0   -448.2619171331419    9.818647358134797    8.338061908017982    51.18214876457388    46.01547603297114   -49.56840068411569    1.380405547582396  0.05505925210786562   0.1893384029980436
       710                     0   -448.2623245053862    9.819340007084614     8.33733032255782    51.18372041087082   -43.69940910799683    45.95955046006105    1.463727794397274  0.05503297566034396   0.1882273232780188
       720                     0   -448.2627305113401    9.818556820573667    8.337931738043983    51.18528316343391    44.14121267096385   -47.56217368857551    1.325726024416579   0.0549956947492527   0.1877749647685051
       730                     0   -448.2631362380795    9.819238678761948    8.337209284698623    51.18681505469964   -44.26994236787581    46.55319613092301    1.411191551542584   0.0549612894794541   0.1868244924550155
       740                     0   -448.2635402306862     9.81845542463193     8.33781035801497    51.18833466460367    43.60178687395894   -46.98552069324005    1.277706706797429  0.05491704532906078   0.1864014179129742
       750                     0   -448.2639432385927    9.819131453830208    8.337092896896916     51.1898262213003   -44.07176231768878    46.34225445550928    1.366065462709428  0.05487542528735967   0.1855216244064093
       760                     0   -448.2643443939538    9.818352630548917    8.337689784332499    51.19130766200183    43.29702702821671   -46.65690457191985    1.237108000302166  0.05482499514662272   0.1851595335945928
       770                     0     -448.26473843673     9.81907414609263    8.336933436683239     51.1927493979823   -49.73828651385554    52.24250887014649    1.332904265647601  0.05477797919306013     0.18455913105932
       780                     0    -448.265132957054    9.818267635472951    8.337555269043778    51.19417439393904    41.09323070143193   -44.25654236995291     1.20668013270066  0.05472252532272635   0.1839501077078597
       790                     0    -448.265532946067    9.818927573840119    8.336851727581086    51.19561612155066   -44.62514296937693    46.89332352023344    1.297315345642027  0.05466836555442869   0.1833027586482815
       800                     0   -448.2659339333239    9.818146123402014    8.337448916054624    51.19705815739229    43.03649140210694   -46.37252774329312    1.174890304024532  0.05460682879664339   0.1830234355038323
       810                     0   -448.2663326988408    9.818812928819614    8.336738183215592    51.19847729427008   -43.47310106410161    45.70328130216777    1.271013169922021  0.05454745860475874   0.1822818208540768
       820                     0   -448.2667285646817    9.818045081050668    8.337323822495746    51.19989058480388    42.61568306199624   -45.92132801054842    1.152644257580236  0.05448206995862215   0.1820795406665917
       830                     0   -448.2671232784859    9.818706163167423    8.336618501425807    51.20128637095831   -43.14553461552328    45.34944852530504    1.250171681281887  0.05441848880244365   0.1813832772844525
       840                     0   -448.2675166709931    9.817942807568672    8.337199729044512    51.20268368708794    42.42762291285969   -45.71041568776374    1.134089510969977  0.05434942534125353   0.1812312953102761
       850                     0   -448.2679100069371    9.818601208705806    8.336496417898784    51.20406947522294   -42.99340482258642    45.18332919366306    1.233707548261931  0.05428185409707534   0.1805727691471454
       860                     0   -448.2683025659933    9.817840263114071    8.337074770613485    51.20546118221443    42.28819824698534   -45.55883628868114    1.120852475618542  0.05420939429133016   0.1804628091085725
       870                     0    -448.268695264497     9.81849632638033     8.33637288063834    51.20684430154963   -42.84592085657576    45.02487881516079    1.221893968610144   0.0541382471898931    0.179834771874142
       880                     0   -448.2690872186426    9.817737817507449    8.336948319454688    51.20823538304062    42.13713205387936   -45.39624480741485    1.111691926448669  0.05406286635097853   0.1797629323791853
       890                     0   -448.2694793396429    9.818391397076866    8.336247955336301    51.20961986066042   -42.69394633215003    44.86181867188038    1.213845247772442  0.05398863569939064   0.1791620702502748
       900                     0    -448.269870775314    9.817635303018241    8.336820482451564    51.21101420742637    41.99145468938162    -45.2393327548429    1.106073888094689  0.05391078897309068   0.1791255236088526
       910                     0   -448.2702624846136    9.818286521233777    8.336121495248534    51.21240402962209   -42.55431822398044    44.71152850833135    1.209121374062365  0.05383392166865955   0.1785492198546161
       920                     0   -448.2706536241576    9.817532586428104    8.336691282035968    51.21380565749477     41.8602360627461    -45.0979622415872    1.103578208420343  0.05375400554282057   0.1785451591550896
       930                     0   -448.2710451618865    9.818181646440205     8.33599342416964    51.21520474989036   -42.42886050770579     44.5761491110224    1.207354209232649  0.05367489936174515   0.1779906105210994
       940                     0    -448.271436236713    9.817429615722368    8.336560641091584    51.21661741253319    41.74144090836137   -44.97008312620289    1.103853755814569  0.05359327758267057    0.178016349133569
       950                     0   -448.2718278173837    9.818076685252727      8.3358637009423    51.21802933803126   -42.31496756776438    44.45295679770626    1.208210346230205  0.05351230132552118   0.1774809205034287
       960                     0    -448.272213652915    9.817399224543136    8.336365067665682    51.21942539485298      33.003048404679   -35.67734200387962    1.116966266069288  0.05343108818436572   0.1771833423337157
       970                     0   -448.2725932061659    9.818011648621187    8.335702785070477    51.22082445204849   -46.76142389751883    48.97384884707638    1.212752317963728  0.05335096528076801   0.1771761412637557
       980                     0   -448.2729902785946    9.817216989840485    8.336303483597108    51.22228605018398    42.41341879043806   -45.69368581823797    1.110101356120619  0.05326533720540323    0.177148553569123
       990                     0   -448.2733922726645    9.817870878068808      8.3355953732418     51.2237683717466   -42.64355075191234    44.81152495458645    1.217501100343518  0.05317941040629852   0.1766138260105748
      1000                     0   -448.2737881281438    9.817118188351223    8.336159524015468    51.22524680726879    41.48171989462646   -44.70149404632654    1.118052115090947  0.05309393829633345   0.1766973186432561
      1010                     0   -448.2741811051115    9.817759516385557    8.335464637869114    51.22671595404547    -41.9265660984945    44.03686905472419    1.223594902591433  0.05300922401219937   0.1761951890175555
      1020                     0   -448.2745727745893    9.817014968198553    8.336021514650806    51.22820007200694    41.26454568640371    -44.4573647437439    1.126992553931526  0.05292414642960873   0.1763170526558092
      1030                     0   -448.2749654146516    9.817654348889805    8.335327763055554    51.22968979083075   -41.91276574042587    44.01422564616001      1.2321613441292  0.05283904629324533   0.1758397199641793
      1040                     0   -448.2753584790474    9.816909322794114    8.335883733790119    51.23120156516174    41.29349060486327   -44.48696190304175    1.136873545130265  0.05275354217131224   0.1759834183218726
      1050                     0   -448.2757528438669    9.817548604419459    8.335188694703717    51.23272100116055   -41.90774757530183    44.00664557103829    1.242246111827163  0.05266784288057492   0.1755133613370412
      1060                     0   -448.2761473215587    9.816803660953136     8.33574333109417    51.23426210328067    41.24633788216665    -44.4371324503966    1.148143894893707    0.052582202993963   0.1756736949209861
      1070                     0   -448.2765427837872    9.817441796732354    8.335048119949199    51.23581052143487   -41.84344347480214    43.93553661050138    1.253452244943783  0.05249628590004841   0.1752098871037232
      1080                     0    -448.276938236781     9.81669762391817     8.33560090391923     51.2373808512876    41.18180705206004   -44.36744439117243    1.160594855896874  0.05241082074960543    0.175386587767571
      1090                     0   -448.2773347271494    9.817334553139947    8.334905608368031    51.23895947970067   -41.78876396671401    43.87387040417505    1.265686024370991  0.05232493212201987   0.1749295014580316
      1100                     0   -448.2777313064375    9.816590899688686    8.335456706808934    51.24056102580048    41.13454265443333   -44.31600495232517    1.174011303718935  0.05223980869213869   0.1751216614684804
      1110                     0   -448.2781290237676    9.817226855053285    8.334761053696546    51.24217197350415   -41.74855533903722    43.82740339629929    1.278825665215654  0.05215411090304596   0.1746699299518994
      1120                     0   -448.2785268934027    9.816483492156083    8.335310617471052    51.24380665280302    41.09687697318564   -44.27480942853978    1.188263948851866  0.05206947864321042    0.174876223096622
      1130                     0   -448.2789259592169    9.817118591275731    8.334614458475651    51.24545161972794   -41.71541628392487    43.78823822134046    1.292730329832353   0.0519841303085859   0.1744285610588509
      1140                     0   -448.2793252169114     9.81637538882452     8.33516256602937    51.24712098560244    41.06536110155304    -44.2400405683304    1.203233644247321  0.05190013287355241   0.1746478592673824
      1150                     0   -448.2797257221354    9.817009719729629    8.334465789423088    51.24880145128824   -41.68877420284567    43.75570318973718    1.307277120390068  0.05181528045112896   0.1742032715977078
      1160                     0   -448.2801033751102    9.816321565576276    8.334970103658868    51.25039850690484     34.8496215447266   -37.54816853414701    1.226913089920807    0.051737266121809   0.1741519408405026
      1170                     0   -448.2805094810926    9.816921679883631     8.33430068747165    51.25214758269212   -43.95927218145005    46.20611466151516    1.325413711672328  0.05165118213165253   0.1740988851681989
      1180                     0   -448.2809290555521    9.816150685174767    8.334866810222785    51.25396149225713    41.79634976353898   -45.04731006717776    1.233337793846367  0.05156584609012055   0.1742879576378375
      1190                     0   -448.2813374868663    9.816789987571122    8.334161052200646    51.25573608211842   -41.70373552013014     43.7691527708939    1.338084865062193  0.05148127919797398   0.1737957453296256
      1200                     0   -448.2817411819876    9.816047347380621    8.334704672115844    51.25751621685913      40.865509671785   -44.02362825107009    1.251557590333576     0.05140000308028   0.1740394347651889
      1210                     0   -448.2821452070909     9.81667787388216    8.334007615939795    51.25930531146443   -41.52448804332782    43.56620919774816    1.353604505698217  0.05131762112954213   0.1736003186252958
      1220                     0    -448.282549933378    9.815935668643183    8.334549460267928     51.2611225627202     40.9471574107754   -44.10625362402786    1.268244167094384  0.05123744707826337   0.1738642410134042
      1230                     0   -448.2829566725987    9.816567329749018    8.333849662211669    51.26295621806149   -41.63689664159578    43.68030047828891    1.369817374032942  0.05115578948616792   0.1734265096818356
      1240                     0   -448.2833641224652    9.815823062802025    8.334391590356169    51.26481829703596    41.01086680328144   -44.17320114268899    1.285173639060587  0.05107655496492043   0.1736981532498418
      1250                     0   -448.2837731543621    9.816455027506425    8.333689896357713    51.26669528786916   -41.66068306556772    43.70034862871047    1.386143932130399  0.05099579211303185   0.1732567751375101
      1260                     0   -448.2841825692741    9.815710034399389    8.334230915815887    51.26859953264213    41.01413379843213   -44.17446283068471    1.302384584054747  0.05091771590448295   0.1735356674684807
      1270                     0   -448.2845934681897    9.816341691308226      8.3335280164469    51.27051864945702   -41.66531820553056    43.69922601502656     1.40255556396314  0.05083800905074329   0.1730927456856788
      1280                     0   -448.2850047625475    9.815596100516082    8.334068010669496    51.27246528859466     41.0213324599901    -44.1794158396259    1.319709874659741  0.05076115742299328    0.173379160065652
      1290                     0   -448.2854175996434    9.816227547235744    8.333363784548004    51.27442737542482   -41.68020965982592    43.70874464502723    1.418766360411779  0.05068255355469752   0.1729345592956011
      1300                     0   -448.2858308725339    9.815481175435625     8.33390287651395    51.27641706946041    41.03721711837156   -44.19471530523888    1.336904279126964  0.05060694756942601   0.1732278981132268
      1310                     0   -448.2862457313346    9.816112520045257    8.333197176476801    51.27842257248767   -41.70160589655799    43.72591421756199    1.434935261651838  0.05052948486867007   0.1727810096935262
      1320                     0   -448.2866610513705    9.815365247998528    8.333735434296198     51.2804561145107    41.05910293135855   -44.21478072859367     1.35417561895288  0.05045514429028941   0.1730807519837213
      1330                     0   -448.2870779896551     9.81599657860775    8.333028171652062    51.28250611929528   -41.72844466126816     43.7473715075351    1.451327257243538  0.05037883579964532   0.1726310935503983
      1340                     0   -448.2874954059573    9.815248307529396    8.333565641511358    51.28458442342668     41.0855857992818   -44.23948898182923    1.371487685308803  0.05030577703501833   0.1729367727506516
      1350                     0   -448.2878853265801    9.815973021000943    8.332784744671969    51.28654952245611   -52.49940097308934    54.85788778768018    1.474630310492138  0.05023732655418225   0.1728833488843229
      1360                     0   -448.2883009405825    9.815125845859749    8.333409697369399    51.28864179527431    42.20772639447026   -45.56344532501321    1.385303020253753  0.05016544068705733   0.1729587551591849
      1370                     0   -448.2887463202676    9.815773474990626    8.332674655684796     51.2909021004422   -43.05581284011971    45.18339029357274     1.48549310844037  0.05008608447016161   0.1723979181288638
      1380                     0   -448.2891756577297    9.815009296589666    8.333221124679726    51.29310764361603    41.41097791651847   -44.58449649275629    1.405454287043823  0.05001464619377624   0.1726715473559701
      1390                     0   -448.2896003120884    9.815643002124499    8.332506397711384    51.29530051604417   -41.84034665567995    43.84441839551236    1.499966383445406  0.04994164684769017   0.1721954516031481
      1400                     0   -448.2900240880621    9.814891497762231    8.333041570651746     51.2975153148076    41.15445789948728   -44.29894011393534    1.422423398041784  0.04987247674544253   0.1725143131630303
      1410                     0   -448.2904494468327     9.81552290586324    8.332327823885409    51.29974725477789   -41.85284829062207    43.84584132736907    1.515603819011173  0.04980091398666053   0.1720508958992882
      1420                     0   -448.2908754485577    9.814770135822512     8.33286228568114     51.3020084781931    41.22059048384015   -44.36422375879773    1.439015831565625  0.04973299957161553   0.1723766291396131
      1430                     0   -448.2913033026186    9.815402179280847    8.332146199511312    51.30428854236185   -41.92384972720295    43.91247744659501    1.531198436189775  0.04966255191064682   0.1719086862123346
      1440                     0   -448.2917317635317    9.814647652593038    8.332680329448767    51.30659783542227    41.28214158539392   -44.42478889909196    1.455570024070645  0.04959583983523685   0.1722382739075063
      1450                     0   -448.2921620279797    9.815280211815868    8.331962024751441    51.30892597049291   -41.98440425162195    43.96761733307048    1.546581857663053  0.04952650827508714   0.1717653457894518
      1460                     0    -448.292592862528    9.814524062576853    8.332495703869839    51.31128316075346    41.33822360025414   -44.47910197783926    1.471930277250455  0.04946098671250355   0.1720985917717368
      1470                     0   -448.2930254982244    9.815157083646161    8.331775230093925    51.31365939535869    -42.0440790239596     44.0214202559838    1.561704202618716  0.04939275612353168   0.1716207929369949
      1480                     0   -448.2934587013615    9.814399295582646    8.332308448787906    51.31606465710048     41.3959869624322   -44.53483152724603    1.488054034774794  0.04932839442677137   0.1719575062070739
      1490                     0    -448.293893720805     9.81503280924869    8.331585760536155    51.31848924382916   -42.10674859353369    44.07801922054592    1.576544482630858   0.0492612347236156   0.1714747361423402
      1500                     0   -448.2943293131287    9.814273314943856    8.332118546744466    51.32094285429353    41.45725835779384   -44.59393574915125    1.503918600702224  0.04919799321330912   0.1718146844230154
      1510                     0   -448.2947667401487    9.814907372502516    8.331393575498229      51.323416080313   -42.17324873981809    44.13830392410004    1.591085370292614  0.04913186697165239   0.1713267905948324
      1520                     0   -448.2952047479608    9.814146261112693    8.331925816552959    51.32591828024586    41.50244328012983   -44.63566689632725    1.519525401948788  0.04906970117014306   0.1716687750583529
      1530                     0   -448.2956440890532    9.814780373900893    8.331199178840984    51.32843734359576   -42.18912810126483    44.14328509011415    1.605239638862177  0.04900464818201114   0.1711743508127005
      1540                     0   -448.2960572900201    9.814161062064617    8.331611849937802    51.33079872726803    24.98886757165229   -26.89210117477269    1.553470671769549  0.04894846514998874   0.1708460929037676
      1550                     0   -448.2964677165056    9.814698776581464    8.330981357807593    51.33322492334159   -46.80471345958199    48.88244295494972    1.620617990400189  0.04888759752897831   0.1712084337773953
      1560                     0   -448.2969305714026    9.813891069659505    8.331544904224311    51.33593388244707    41.96976019282523    -45.2352475052038    1.547750844587941  0.04882535424156251   0.1714832788613614
      1570                     0   -448.2973853827742    9.814528210298802    8.330806796256734    51.33860828875801   -42.40174898612933    44.36583757149646    1.632166824085033  0.04875971297475978   0.1708774918274463
      1580                     0   -448.2978346973885    9.813756607861068    8.331341140806275     51.3412801546539    42.20587746947507   -45.36931311325375    1.563134674231295  0.04870006142369893   0.1712496201789752
      1590                     0   -448.2982838750776    9.814391274788248    8.330607580375156    51.34395737998257   -41.78481150717901     43.6912001696634    1.644877497592063  0.04863733330092254    0.170686613333899
      1600                     0   -448.2987305391964    9.813627604947456    8.331134199223488    51.34664914400989    41.86878222323105   -44.99568426805548    1.577933140768953  0.04857903413634793   0.1710669674742339
      1610                     0   -448.2991791208364    9.814258536462582    8.330403290359131    51.34935808275922   -41.68888479293027    43.57572009667739     1.65754581628107   0.0485175760026699   0.1705167273859636
      1620                     0   -448.2996263173113    9.813495328626656    8.330927990872501    51.35208746318125    41.85324703024796    -44.9706652932624    1.591973220620584   0.0484602882117606   0.1709016409973457
      1630                     0   -448.3000760505706    9.814123044833993    8.330198597201168    51.35483682842004   -41.36185870001307    43.21820406550432    1.669615831217322  0.04839975819492764   0.1703351827605503
      1640                     0   -448.3005242318226    9.813362291546984    8.330719416612659    51.35760664919469    41.82033749022036   -44.92657385276731    1.605661219279737  0.04834336405789677   0.1707315858532662
      1650                     0   -448.3009755468112    9.813988852396569    8.329989474512303    51.36039953465227   -41.30927487743399    43.15220613419269    1.681439961400615  0.04828362930058699   0.1701607104567656
      1660                     0   -448.3014254250128     9.81322721285483    8.330509185791424     51.3632134981246    41.90046420333204   -45.00477208891034    1.618846791382495  0.04822797833586925   0.1705642989479686
      1670                     0   -448.3018788064346    9.813851841177886    8.329779200285714    51.36605172576495   -41.05787922167934    42.87737461792064    1.692591499505721   0.0481689097675343   0.1699747513707441
      1680                     0   -448.3023302969087    9.813091501221878     8.33029583765676    51.36890932241418    41.91747064935058   -45.01391889376393    1.631687307638427  0.04811394603157224   0.1703890384589436
      1690                     0   -448.3027857288071    9.813715778113746    8.329564355897986    51.37179367551325   -41.06166760458501    42.87208009474563    1.703793527458791  0.04805546750465256   0.1697942949397344
      1700                     0   -448.3032392911739    9.812953634738578    8.330080544267274    51.37469763546178    42.04236382997301   -45.13899796680239    1.644155466493329  0.04800108109918402   0.1702160235837486
      1710                     0   -448.3036971459047    9.813575651721072    8.329349146245331    51.37762943660685   -40.73399216675485    42.51690735741955    1.714353545125633  0.04794307103833748   0.1695968403966643
      1720                     0    -448.304152356498    9.812815800081241    8.329861314765832    51.38057728737602    42.01402557656539   -45.09924235704327     1.65641568440045  0.04788924273709122   0.1700290648019168
      1730                     0   -448.3045867270891    9.813577082396851    8.329016860956036    51.38342711962326   -57.18062627087945    59.03786767513565    1.727709047631307  0.04783440554360965    0.170072669762895
      1740                     0   -448.3050283637289    9.812784730751567    8.329564696387248    51.38626626908074    29.87335028764553   -32.81521497026788    1.677579419292997  0.04778729480435043    0.169720223646296
      1750                     0   -448.3054958753361    9.813343528098494     8.32887679898478    51.38935302764074   -45.68088015941556    47.68637803328276    1.737187912186023  0.04772484045257469   0.1694249728060139
      1760                     0   -448.3059786764377    9.812574504930195    8.329386765484974     51.3925254194157    37.63080821407842   -40.60667298289079    1.683058998973511  0.04767067526301194   0.1695536109223437
      1770                     0   -448.3064466205443     9.81318065577128    8.328660061582186    51.39563573112822   -43.56536847670762    45.46518933985212    1.746327864384976  0.04761200206653382   0.1691278746725204
      1780                     0   -448.3069163317521    9.812427685880852     8.32915787763201     51.3987596213564     37.9869912556758   -40.86497671286457    1.694172310721418  0.04755903238973661   0.1692926943645061
      1790                     0    -448.307380674258    9.813036194631763    8.328430457676108    51.40188020943636   -43.45305814521092    45.32349776053898    1.755646631679432  0.04750197619556595   0.1689153146177801
      1800                     0   -448.3078504187859    9.812290344719635    8.328920409316328    51.40503533314946    37.19480022558412   -40.01961621277368     1.70559413226041  0.04744942612629094   0.1690491844913179
      1810                     0   -448.3083171405146    9.812858196917604    8.328227352754427    51.40819666018959   -39.43245051443304    41.12173668895228    1.762145194554821  0.04739255962383018   0.1685522412439278
      1820                     0    -448.308782025989    9.812106680272112    8.328721602590425    51.41137094909553    41.86959256644253   -44.89519290450639    1.712620999903166   0.0473404003360722   0.1690176997476973
      1830                     0   -448.3092519184417    9.812738730559193    8.327970337313221    51.41458144863954   -42.51797227013006    44.25397264158218    1.772209962153953  0.04728415794001026   0.1684455855857141
      1840                     0   -448.3097271475041      9.8119992421791    8.328448894018891    51.41784083488547    37.14595708018907   -39.94985276943488    1.725847812322679  0.04723158354856341   0.1686206913716988
      1850                     0   -448.3101971133763    9.812582458460856     8.32773832464804    51.42109211552082    -41.4608798069389     43.2171066103954     1.77956932357621  0.04717487257043315   0.1681913688703013
      1860                     0   -448.3106676573072    9.811807895229061    8.328248236932083    51.42436364784997    42.38763692621659   -45.43421336945644     1.73168956203739  0.04712283510627718   0.1686171248212288
      1870                     0   -448.3111433675685    9.812419290588695    8.327510234724874     51.4276685055441   -39.68248851179546    41.34265779977637    1.785912401902294   0.0470662205612293   0.1678973006718986
      1880                     0   -448.3116136707456     9.81165956363472    8.328005315414265    51.43097279066532    42.32476778186279   -45.35719748857773      1.7407043145396  0.04701434998640763   0.1683874740777627
      1890                     0   -448.3120912413025    9.812279524630366    8.327257506903397    51.43432369777117   -40.84624722909573    42.56192237254621    1.793571312239429  0.04695764970376792   0.1677100897606001
      1900                     0   -448.3125670561924    9.811521780763972    8.327747964199789    51.43769054223393    40.77709757876288   -43.76746179718877    1.750737953713855  0.04690560444652775    0.168112785984785
      1910                     0   -448.3130443593099    9.812147666176939    8.326993003774952     51.4410794790306   -43.16164256805725     44.9400511260528    1.801013730498405  0.04684845754313538   0.1675633735224948
      1920                     0   -448.3135045919667    9.811553576446698    8.327343773713267    51.44431214463516    19.26746604322313   -21.02958579658099    1.770922690075893  0.04679866186381385   0.1670258654735031
      1930                     0   -448.3139660465815    9.812156487742953    8.326619584063987    51.44771207794108   -61.96223820065758    63.40368683302266    1.805842178416682  0.04674236079089333   0.1681112313932182
      1940                     0   -448.3144738320638    9.811304324885198    8.327179419481556    51.45130953094807    30.49144145309945   -33.59461014562326    1.782228738089269  0.04669307541995663   0.1677505833484909
      1950                     0   -448.3149675402238    9.811852625736032    8.326476507408833    51.45488698399222   -44.63083488358468    46.46416514911518     1.81400513940042  0.04662838481827508   0.1671350141904875
      1960                     0   -448.3154640464348     9.81108111957896    8.326967812598346     51.4584782946397    38.11164512403451   -41.00433939396197    1.779321284831607  0.04657541286557523   0.1673309573463961
      1970                     0   -448.3159472512662    9.811688155105649    8.326222353307831    51.46200749371174   -43.81805447456984    45.57654477724024    1.820152833938388  0.04651651228742826   0.1668353697623232
      1980                     0   -448.3164410803424    9.810964883005937    8.326670312377665    51.46560080743148    33.16401288921274   -35.80294009444471    1.789322941673232  0.04646347387041122   0.1668459421888218
      1990                     0   -448.3169240043142    9.811483937549113    8.326000659208447    51.46915908257223   -38.27893381979978    39.91503685225805     1.82300815803282  0.04640410754443688   0.1663711665358311
      2000                     0   -448.3174071311264    9.810733088658711    8.326474252843322      51.472735959022     42.0472678899682   -44.99553171897327    1.790462648613676  0.04635110257077713   0.1668801023477803
      2010                     0    -448.317906396205    9.811298606433464    8.325758488528717    51.47641683131156   -35.22844750708575     36.6337722321576    1.826457434595151  0.04629100967015259   0.1659873322892105
      2020                     0   -448.3183847360794    9.810566778806091    8.326214465228199    51.48000133531128    42.83504080098275   -45.78387505630991    1.800419533202847  0.04623896625973004   0.1667106703086018
      2030                     0   -448.3188736859098    9.811214355307397    8.325427949679593      51.483653035172   -44.13229169421032    45.93532857479081    1.837889512250376  0.04617936671269199   0.1660417489272721
      2040                     0   -448.3193717762348    9.810457227618951    8.325899167339786    51.48737725818209    36.58241320779052   -39.35796385041414    1.810129808106909  0.04612478956610858   0.1661962976671244
      2050                     0   -448.3198575021452     9.81104037518655    8.325169651561348    51.49104374259819    -42.6925939733506    44.23095187787526      1.8406639380498  0.04606478907371245   0.1656868954932553
      2060                     0   -448.3203524528329    9.810241520990324    8.325674205439935    51.49479563732464     42.9431597780633   -45.94819603722079    1.811679433266782  0.04600902314135896   0.1661317539765016
      2070                     0   -448.3208544998589    9.810828994946933    8.324932410069602    51.49859085770525    -37.1416225685006    38.66051477215329    1.841078559117604  0.04594689076763725   0.1652125677460452
      2080                     0   -448.3213418252432    9.810086494900611    8.325389787844005    51.50231898985944     41.8301642997604   -44.70608699759845    1.817664557571842  0.04589215443869588   0.1657390935375146
      2090                     0   -448.3218349408226    9.810716800407834    8.324612785132274    51.50609529342115   -43.26968261303432    45.00522195165552     1.85055663686237  0.04583163405693932   0.1651412912297832
      2100                     0   -448.3223319319592    9.809902993139472    8.325127190479757    51.50992186415441    43.97231261009686   -46.89275409201124    1.826969231756889  0.04577543470924939   0.1656187512320056
      2110                     0   -448.3228361533172    9.810449833700135    8.324416879944431    51.51378090113815   -31.38000221765968    32.79812478885496    1.843210175500471  0.04571026705888939   0.1644399777634048
      2120                     0   -448.3232931621881    9.809764178303055    8.324840826414237    51.51736568249413    41.22873753372373   -44.75520578890701    1.843377542056382  0.04566377317789211   0.1657389402265563
      2130                     0    -448.323840808866    9.810096420369257     8.32428713610696    51.52155125108522   -9.358246078353574    10.65916079275618    1.824857556479589   0.0455851996111637   0.1636315187689849
      2140                     0   -448.3243350132029    9.809686435110125    8.324465599984546     51.5254745711504    29.50115467350215   -33.49506312997564    1.868752651529869  0.04554349299769667   0.1657155029337974
      2150                     0   -448.3248498150004    9.810265193156617    8.323704485537872     51.5294934337702   -50.07963326235519    51.91169144547275    1.853437262848735  0.04546716520999738   0.1644947349180077
      2160                     0    -448.325370358047     9.80956755865442    8.324110078244157    51.53352467953986    22.76927105737559   -25.52669309467709     1.85930753776866  0.04541169719694688   0.1643265353163118
      2170                     0   -448.3259023976277    9.810150444036486    8.323341325383955    51.53779155551819   -57.91835307483526    59.88040310229081    1.851215143578014  0.04533471393100585   0.1645668478869056
      2180                     0   -448.3264086118413    9.809147627434198    8.324018402230125    51.54180180595966    51.41667586597347   -55.58897038197164    1.854108646035517  0.04528009163306887   0.1654829083100314
      2190                     0   -448.3269562962243    9.809736437898941    8.323243311647722     51.5460360478632   -29.81404327415901    30.90828750726268    1.854682289859668  0.04520565087791562   0.1630356672896842
      2200                     0   -448.3274680591178    9.809143075603695    8.323558526658941    51.55015813116028    30.34811939462727   -34.12992971310702     1.87885069856857  0.04515127302675709   0.1645769556405734
      2210                     0   -448.3279820958553     9.80972594650771    8.322797050677034     51.5542423362687   -49.83529095369809    50.96796214841796    1.859418632804453  0.04507421851929408   0.1633554055264282
      2220                     0   -448.3284919387037    9.808969047187215     8.32324603675975    51.55829571717436    30.00338543715474   -32.95932206667857     1.86217457702267   0.0450145172739605   0.1634784755037484
      2230                     0     -448.32899494864    9.809526304857227    8.322510260972004    51.56235530132849   -47.00490104222469    48.73181127588011    1.851244158408887  0.04494017855004398   0.1629662126281017
      2240                     0   -448.3295254466163    9.808879382054833    8.322860659854895    51.56657422429341    19.27595733125184   -21.98448666155916    1.876289113103189  0.04488112835718347   0.1629051482847361
      2250                     0   -448.3300616280699     9.80917029491466    8.322327927529084    51.57093644796808   -26.79996203681676     28.9048943641151    1.811080008386501  0.04479016551138273   0.1620626480155088
      2260                     0   -448.3306060122997    9.808352061049408    8.322818203728918    51.57540181989337    59.28440522723032   -62.63368497979282    1.846276619212839   0.0447290779662492   0.1636666325966296
      2270                     0   -448.3311496489175    9.809026891007466    8.321962544236172    51.57975666320154   -32.49074951880586     34.1850173720107    1.825864734841531  0.04464723770579671   0.1617317949517162
      2280                     0   -448.3316943073459    9.808524037304375    8.322176815725115    51.58415054929659    16.16004814209266   -18.28208572579035    1.870018457647454   0.0445860964515517   0.1616608285215013
      2290                     0   -448.3321954043445     9.80881782211509    8.321656187451445    51.58831617215396   -29.66177581139964    32.07152888318761    1.815650072184194  0.04450161956603685   0.1613825542301023
      2300                     0   -448.3327563503794    9.808133627284588    8.322023179171454    51.59293159885102    40.10579322186113   -42.66418538379857    1.894975890190792  0.04444382679193895   0.1624950056731199
      2310                     0   -448.3331577380653    9.808989928930201    8.321077595184583    51.59628840560684   -70.69076362599183    72.23367198646316     1.88829638314284  0.04438201654095328   0.1624287380483876
      2320                     0   -448.3336352479929    9.808107479381745    8.321638800130978    51.60013379768496    24.55837300699868   -26.78169577629141    1.882414449281634  0.04431825795554492   0.1612521922286704
      2330                     0   -448.3341881660293    9.808243584893926    8.321237372984438    51.60470069730773   -3.535558034139406    4.591110031647924    1.811327012869878  0.04422425896551527   0.1598486424240352
      2340                     0    -448.334719965885    9.808018365082898    8.321221933014648    51.60917363282611     11.8692030393082    -15.3898148048509    1.934117616608116  0.04417358335330851   0.1617418405290558
      2350                     0    -448.335269638893    9.808463440319153    8.320536066146319    51.61382103806439   -53.23944771833265    55.17116962289154    1.841806480596146  0.04407291285234047    0.160979234652793
      2360                     0   -448.3358075936604    9.807539954493011    8.321108726012714    51.61830383718384    45.22698451804859   -48.45159665320479    1.874214925300957  0.04400406589238978    0.161254893069759
      2370                     0   -448.3363201693614    9.808327284537018    8.320181013491471    51.62258406410952   -59.52638592103219    59.52776058623125     1.92998243545915  0.04393846070284368    0.160616407665573
      2380                     0   -448.3367205345041    9.807612378819497    8.320619393908935    51.62594174931849    16.92477957495075   -19.88919570224001    1.915260285689963  0.04387838162012808   0.1604578804693412
      2390                     0    -448.337254731209    9.807758275006565    8.320201295644614    51.63045044202133   -12.18848528404322    13.57588218416779    1.797913838041411   0.0437764514626436   0.1587985903842736
      2400                     0   -448.3377876255598     9.80741874946701    8.320277033830729    51.63498209220417    16.61209492115371    -19.9029067272775    1.914528427959743  0.04374301460964838   0.1600645590308545
      2410                     0   -448.3382387119966    9.807770686074749    8.319705304220268     51.6389004850432   -35.47365785624894     38.0774863671875    1.783039489427321  0.04362508888002743   0.1594005751861549
      2420                     0   -448.3387712302299    9.807104632489889    8.320073126677762    51.64343092197847    32.23203828427211   -36.14927437172773    1.932723756874694   0.0436469786405225   0.1607040647765386
      2430                     0   -448.3392276387804    9.807447714840373    8.319521394623457    51.64725715523659   -18.54922324601104    19.70810537715316     1.82162961351081  0.04348432433985238   0.1580640213187619
      2440                     0   -448.3397697810374    9.806831608008608    8.319816558395686    51.65199319313506     42.5749874436443   -46.19551948438664    1.901278787515029  0.04350708469380438   0.1600134558609599
      2450                     0   -448.3403316800398    9.807292771802846    8.319113735575577    51.65675931742344    -24.5964666786031    26.19463444179642    1.836866153868292  0.04333760181941865   0.1577467045330342
      2460                     0   -448.3408810682402    9.807083840073538    8.319054929434877    51.66147788910425   -11.92615958479657    10.00219057892395     1.92558090890957  0.04336285270045562   0.1580561680470051
      2470                     0   -448.3413542261521     9.80721244349423    8.318689563633006     51.6656171101287   -37.96685907477303    38.43210153053428    1.859053779938868  0.04323626132680355    0.157651451801718
      2480                     0   -448.3417997030665    9.806604392232316    8.319021248830659    51.66956238511335    24.24116884851203   -28.36213204546868    1.962854701727198  0.04329592245170558   0.1596005493830224
      2490                     0   -448.3423697967311    9.807415551491264    8.318027463361682    51.67455525206094   -85.15508029048442    84.26934863250125    1.981330429399472  0.04318553122181593   0.1593633653438377
      2500                     0   -448.3428003376657    9.806346830555093     8.31872703172629    51.67823657316289     32.4278056706099   -34.49024626739068    1.887769745651369  0.04310656166274623   0.1575634622293327
      2510                     0   -448.3432928769599    9.806515791623397    8.318310874246908    51.68252825369472    1.146035782970863  -0.1711720149261713    1.779295202113316  0.04294818272358372   0.1559414635967477
      2520                     0   -448.3437885426694    9.806302773633508    8.318283932926706    51.68695059431671    15.13550674685933   -18.73904014402082    1.967780327864107  0.04303636041715048   0.1581979410034737
      2530                     0   -448.3442486072795    9.806527402889758    8.317829421433398     51.6909461961181   -21.96852761820014    22.38100031031661    1.845660312741515  0.04286412732600142   0.1559278665023094
      2540                     0   -448.3447637895997    9.805877253345699    8.318151040318142    51.69564509520929    43.18152418865617   -47.38530741397063    1.940501790496644  0.04290013168731907   0.1586255391549757
      2550                     0   -448.3453316303471    9.806352167142098    8.317410643440484    51.70062204864759   -26.26616814256433    27.98022165736344     1.75421484780336  0.04265682935416151   0.1557550074559214
      2560                     0   -448.3457777388389    9.805513446809462    8.317927417358508     51.7046360271673    63.09535067799305   -65.59497904524909    1.843090884388565  0.04269668051542438   0.1570371385412286
      2570                     0   -448.3462482256973    9.805913219178489    8.317321937290373     51.7087374101916    4.908554292227879   -3.718337982711388    1.749410145099509  0.04254183886831775   0.1545310794285791
      2580                     0    -448.346740144689    9.805281517665305    8.317639788741394     51.7133341856543    68.08854361909373    -72.2210507686746    1.893143689313114  0.04260642037057397    0.158224142193187
      2590                     0    -448.347216095309    9.806301985299152    8.316487387013284    51.71755327713753   -64.09885083436825     65.8045899726405    1.825852980678915  0.04243380294815938   0.1562676496737499
      2600                     0   -448.3477342725269     9.80543789869815    8.316995090202461    51.72212894964392    26.72537760531468   -29.64876165429994    1.926944170967192   0.0424715175934551   0.1558224696009611
      2610                     0   -448.3482840428575    9.805497272753014    8.316623151576271    51.72705409381284    6.811647966132362   -5.735328171504808     1.74418489934292  0.04225983367049152   0.1535143210606959
      2620                     0   -448.3487153576378    9.805246384498204    8.316650200556905    51.73103972845278    26.34295129710455    -29.8678226382207    1.961782402207272  0.04235441848280408   0.1560140809945191
      2630                     0   -448.3492135145489     9.80473021193084    8.316787614484582    51.73558823911781    75.72497326238742   -75.87554789130375    1.692636352972672  0.04211968913524247   0.1541470085854358
      2640                     0   -448.3496650269504    9.806179963266098    8.315300313512548    51.73995046413764   -107.7028549439968    109.7549673474236    1.862955319778064  0.04209588015825971   0.1579754491746093
      2650                     0   -448.3500668477119    9.804714683304217    8.316372001062676    51.74335004550704    57.38566788610007   -59.46553508719819    1.820487423344213  0.04207800477824367    0.154405731846027
      2660                     0     -448.35056924924    9.804998223342398    8.315854310870405     51.7478486087678    11.98483374056336   -11.99390343186052    1.781572200710501  0.04196285254638962   0.1524477506405249
      2670                     0   -448.3510294232367    9.804844924790398    8.315754502438338    51.75208187653652    19.13382525320351   -20.95511259617427    1.851312419138631  0.04194610075220101   0.1529347882468462
      2680                     0   -448.3515648034721    9.805065762723672    8.315235633802226    51.75708876006533   -20.04312654292911    23.22417309060124    1.722653960216397  0.04175213560673094   0.1525799478818424
      2690                     0   -448.3520260047872    9.804447349288827    8.315532360809211    51.76130693484162    42.72329706666164   -40.44298084767679    1.941012273120084  0.04180714709638267   0.1531721132411796
      2700                     0   -448.3525346395338    9.804720921547876    8.315016524598308    51.76599384529136   -2.473557015389811    4.369638005416237    1.703091335654797  0.04161217102872175   0.1514935928490509
      2710                     0   -448.3530711475542    9.804353392159872    8.315088471369709    51.77104723812781    27.88828595610863   -32.27328427225841    1.971084384780801  0.04171616663081129   0.1543506286005767
      2720                     0   -448.3536070152316    9.804668908246489    8.314467636447148    51.77603358025344   -22.68144988665217    24.93528484549809    1.642573951991981  0.04141108533182461   0.1517860716883025
      2730                     0   -448.3541336111783     9.80412497695097    8.314694221110649    51.78088803851143    29.20329297236133   -32.34334462060022    1.924381800920131  0.04151692325868328   0.1527807269329387
      2740                     0   -448.3546881144291    9.804581685274853    8.313969443658804    51.78603562858891   -38.38766087164711     39.8073320795067    1.838256724625071  0.04134097870028897   0.1511146786497962
      2750                     0   -448.3551197892707    9.803945254419773    8.314309043780742    51.79017532658913    26.15573262983553   -30.11033810690234    1.994952459570768  0.04139786879636426   0.1534014424315651
      2760                     0   -448.3555866825635    9.804580045953214    8.313473746777563    51.79454260907195   -60.64337368546192    61.33833755994473    1.823000897543935  0.04119138891472263   0.1515172238286976
      2770                     0   -448.3560828881344    9.803647135297235    8.314006906688832     51.7991497798825     37.8677141612454   -39.30341862219666    1.813778303321807  0.04113837441565313   0.1504494161597928
      2780                     0   -448.3565550402884     9.80397604052173     8.31343854194367     51.8036263420829   -12.95439976960514     14.3263579559176     1.68381317401059  0.04097094282649039   0.1494308583638397
      2790                     0   -448.3571302558444    9.803579675979172    8.313488754535296    51.80907185283813    19.71818160791567   -22.31916790252071    1.904915425493987  0.04101542895299523   0.1504948500204707
      2800                     0   -448.3576961793215    9.803824691691812    8.312915231774651    51.81451560145788   -23.75406746841126    25.71409913600112    1.634691864517014  0.04075453439674123   0.1492947646542268
      2810                     0   -448.3581751401784    9.803243273865156    8.313179012879724     51.8190320637645    33.26749562274865   -35.66029041372089    1.878032006503704   0.0408267591720691   0.1500292164331927
      2820                     0   -448.3586697683211    9.803775222051877    8.312419705603501    51.82376459965598   -42.33462494756104     43.0301325171424    1.754370823755665  0.04065255918473937   0.1489603808259228
      2830                     0   -448.3591680455505    9.802866263255011    8.312929704109258    51.82859246810496    52.59850175520555    -55.3850535712884    1.854763662947912  0.04065071179965402   0.1501903187351233
      2840                     0   -448.3596498991203    9.803387046140996    8.312195360538203    51.83309738422883   -21.06827070585466    21.15378188436325    1.768385259038502  0.04050010462987041    0.147709004772634
      2850                     0    -448.360161659107    9.803088802398053    8.312176438782702    51.83803802559958    1.163560133259826   -3.731520290875449    1.945031528442192   0.0405115778655695   0.1487936319253424
      2860                     0   -448.3607140684733    9.803065192236126    8.311844959086907    51.84335278646291   -10.23955052002612    10.86980156309249    1.687800289087092  0.04027521810429591   0.1467733265457233
      2870                     0   -448.3611974476988    9.802362658137133    8.312216248347729    51.84812308545062    59.37017867164125   -69.27950048147682    1.555725153402747  0.04022008260978113   0.1479636731894987
      2880                     0   -448.3616713323869    9.802855010548853    8.311459689789102      51.852599955637   -9.761644110619034    11.87219398145121    1.784593784952232  0.04013479429057415   0.1462657901965476
      2890                     0   -448.3621038989387    9.802220702077081    8.311797531429146    51.85698672866422    52.92847880835996   -60.84634809552921    1.789996036947475  0.04013900265308612   0.1492186893674718
      2900                     0   -448.3625569993247    9.803017629728192    8.310808264121695    51.86130124729704   -52.53688552550945    52.39520127287879    1.757704598428782  0.03997306908738579   0.1468901718479913
      2910                     0   -448.3630585791042    9.802250730449821    8.311172273781825    51.86613126849905    25.40833991837626   -26.40981773397102    1.796268047753997  0.03991419749793387   0.1459748454628387
      2920                     0   -448.3635697106631     9.80254738615637    8.310569367773398    51.87131251746583   -23.68843087558242    26.35206244874839      1.4799524743871  0.03964892282333485   0.1462103478238432
      2930                     0   -448.3641156130848    9.801990190481435     8.31076934908247    51.87652947010854    28.29914845743544   -30.47931461562731    1.867160652301989  0.03975497691007376   0.1463005159095317
      2940                     0   -448.3646311633277    9.802435989230629    8.310054075976677    51.88160645971863   -38.14601690171067     39.0221953838758    1.694828111411812  0.03955367310176439   0.1450045261622654
      2950                     0   -448.3650854881899     9.80222146487359    8.310031615035516    51.88604856070415   -25.97541897020211    14.75152610789416    1.443415542832988  0.03945419732104266   0.1439918968311884
      2960                     0   -448.3655372951115    9.801992443919952    8.309927716921525    51.89060124676713   -9.986287805402467    5.219539272749675    2.060114050362496   0.0395737579395832   0.1471935693457787
      2970                     0   -448.3659414839183    9.800889524044827    8.310542911528477    51.89476745345612    109.3424357409409   -107.8060662103595    1.405046150634687  0.03919084354402885    0.145380196609604
      2980                     0   -448.3664261828569    9.802336279377187    8.309054837721707    51.89944087789966   -74.46272827714628    74.16377326458796     1.84262248728164  0.03926832674981803   0.1453941206880866
      2990                     0   -448.3669217536223    9.801200826499587    8.309692971365337    51.90431898685562    46.64893794689133   -45.15902024540367    1.496785990643271  0.03903310513940175   0.1424947740008348
      3000                     0   -448.3674001637411    9.801941738617744    8.308784291202882    51.90912461459178   -54.02909275808172    54.18123188549803    1.740975321151262  0.03903289212047639   0.1436878688343552
      3010                     0   -448.3678979245735    9.800763760407467    8.309457456110268    51.91415052632135    71.68057027508046    -70.5817647419462    1.492176790057025  0.03884081044921803   0.1425319754623748
      3020                     0   -448.3683763292492    9.801484207305885    8.308563522480318    51.91889396187877   -26.51956760512596    26.42772086053619    1.616677501029061  0.03879123259045711   0.1419750377693935
      3030                     0   -448.3688174220938    9.801065335609087    8.308669837787512    51.92340664309964     10.8827637511556   -13.85754849624151    2.013569397356572  0.03888157215164373   0.1444761238424357
      3040                     0   -448.3692507813228    9.801216019805219    8.308217452971698    51.92781715535529   -18.99957527319205    20.97555367137794    1.462055540275977  0.03853515173096569   0.1416249404615336
      3050                     0   -448.3697455737326    9.801332206593052    8.307845568351135    51.93273976422444   -46.15311814240415    44.76028050471703    1.846368647948663  0.03860547340647577   0.1419509395268951
      3060                     0   -448.3702085828572    9.800002309640709     8.30865846344081    51.93773247998548     97.4474101650018   -99.16676946457272    1.683249707263399  0.03845727151468134   0.1444194426943961
      3070                     0   -448.3707654542878    9.801519263926421    8.306998790987961    51.94349397324596   -97.72336896809807    97.49630495263411    1.602302519346257  0.03827202742381158   0.1445053960895075
      3080                     0   -448.3711991646287    9.799838036693371    8.308156671822056    51.94776869394457    89.42027761221541    -89.8841915335852    1.564615095138622  0.03819317171368841   0.1418235420892004
      3090                     0   -448.3715529840117    9.800503559308156    8.307334884358468    51.95138718430582   0.8833453145792711    2.081967205843676    1.300261914094749  0.03798252705134336   0.1399902496633578
      3100                     0   -448.3720302125568    9.800805860208696    8.306836176019699    51.95617888658791    -47.9772414393464    45.08084471204251      2.0317257799033  0.03819588077112945   0.1416345684339944
      3110                     0   -448.3724216612304    9.799523615225429    8.307634453716826    51.96042017864937    91.86699051844282   -93.22429364286637    1.628861692306344  0.03795815097046015    0.141896852609724
      3120                     0   -448.3729349940585    9.801003152501686    8.306039204435383    51.96577794205629   -97.68192912975276    97.01701131391557    1.711295413797052  0.03784789341596936   0.1423049561888773
      3130                     0   -448.3734826250007    9.799265714956716    8.307146587681888     51.9713956683553    92.15234487440891   -92.26751426842529    1.475100095707274  0.03765836711947151   0.1397777552482584
      3140                     0   -448.3739374615707    9.800517831339505    8.305799974775564    51.97604695298207   -68.49305507904756    68.10552520468558    1.775158790576681  0.03765399477434825   0.1395371189314605
      3150                     0   -448.3743059575984    9.799972172314071    8.306046774113701    51.97987794201971   -14.65349199499091    11.11720057438778    2.045234732912643  0.03769954175186224   0.1402956898759621
      3160                     0   -448.3747260506315    9.799983178778287    8.305722906009825     51.9842381639064   -27.93530826364559     28.3253110012167    1.612624125653274  0.03741637463390701   0.1371774035906285
      3170                     0   -448.3752558409038    9.800282215585856    8.305214991492209    51.98989772735675   -80.48701308995874    63.63913904763488    1.572323418005175  0.03738397715361608   0.1388501887645827
      3180                     0   -448.3756263432363    9.798553111500647    8.306293803834679    51.99404192699033    114.1299063911366   -111.3222604652343    1.550163654873902  0.03718052539237218   0.1398758098247693
      3190                     0   -448.3761060452761    9.799998993686785    8.304777074995469    51.99892721913756   -70.39179782352234    70.30938840621108    1.705201784167937  0.03712794039611586   0.1379142830209738
      3200                     0   -448.3765806246687     9.79906357253766    8.305274757540795    52.00399603470847    25.88283207874391   -29.51356794341955    1.987322410906645  0.03715347337216626   0.1393182445638801
      3210                     0   -448.3770403909582    9.798828814182237    8.305109134584956    52.00882710409009    40.20735456950535   -38.34545093354935    1.255448430590235   0.0367470901755278   0.1346697434298823
      3220                     0   -448.3773947372376    9.799936776024186    8.303935031703462    52.01282523673568   -101.6347380300737    101.7244365202106    1.703262557311443  0.03681475623835781   0.1390889704307095
      3230                     0   -448.3778359386259     9.79821795287271    8.305089532652257    52.01742684557999    88.27614771026064   -88.39805344428081    1.448352461707147  0.03664412921747651   0.1362052744024014
      3240                     0   -448.3782176072633    9.799184577817295    8.304023782329551    52.02133957922923   -36.38487760597739    37.26753890003035    1.993879880950373  0.03673144391806796   0.1358889117159908
      3250                     0   -448.3785995946129    9.797903748085593    8.304816256321036    52.02568690471503    102.2356657594329   -101.9544367876851    1.399872815025467  0.03643919434696194    0.136221322878796
      3260                     0   -448.3790382367761    9.799220859012628    8.303413460050777    52.03026447845956   -66.01915384538204      65.361718570414    1.652452638889145  0.03641147437375344   0.1351572420729421
      3270                     0   -448.3793048796971     9.79818873628415    8.304112227706629    52.03313612654177    47.64240641920706   -49.69748001939275    1.738888149465256  0.03639814588892495   0.1352654913029658
      3280                     0   -448.3797561818655    9.798328317819776    8.303669611347621     52.0379012145586     17.8109905830384   -18.40217436645647    1.580685818759774  0.03622020930145964   0.1326046081427236
      3290                     0   -448.3801743633582    9.798667194365244    8.303076593975755      52.042489799413   -35.02414629836493    35.22324197003641    1.558726517224767  0.03609516898521525   0.1327565264126887
      3300                     0   -448.3805927623374    9.797332414790613    8.303895356484727    52.04736226297996     108.563620454797   -109.6063528362692    1.496207388056713  0.03598345987769799   0.1361866107705076
      3310                     0   -448.3810468436037    9.798287601173325    8.302779547162846    52.05195820010579   -16.99267917750446    16.78497730953157    1.568042805263395  0.03588197906721333    0.131484925750626
      3320                     0   -448.3814219378583    9.797526606348715    8.303155334622215     52.0562187838525    60.64210108279198   -62.22852245313376    1.669468001448102  0.03583406798887676   0.1335636909940689
      3330                     0   -448.3819078113278    9.798301251181408    8.302150239211922    52.06143426993849   -45.34676640149572    44.72702477925832    1.752271762470416  0.03572128133452426   0.1318484353136398
      3340                     0   -448.3823079239961    9.797574169573911    8.302479697133926    52.06586526527556    27.70302014170009   -29.39480811578349    1.722464204164085  0.03562021745308369   0.1316672704698915
      3350                     0   -448.3827843898615    9.797861581719243    8.301870218481413    52.07111654195565   -21.01251543856559    21.36121090496509    1.482874769535054  0.03539443387466423   0.1298905832542858
      3360                     0    -448.383267852725    9.796701200138239    8.302392410151821    52.07672436641419    101.5624920844337   -85.10530922449001    1.899878492477592  0.03532124809175366   0.1329770396715536
      3370                     0   -448.3836749565539    9.797696130165034    8.301402574651371     52.0810632531517   -30.90188085512203    21.39498385631079    1.159475861033442   0.0351027197219351   0.1291175802436518
      3380                     0   -448.3841387710334    9.796887058615479    8.302071016945094    52.08639994544991    42.65665504898629   -112.9861703712331  -0.4211944303961208  0.03480334289353659   0.1283296714865786
      3390                     0   -448.3844522801354    9.797515772371831    8.301006491256114    52.08973241109391   -34.91747060095279    20.29580555999969    1.103578307954794  0.03490247623391929   0.1282798668694912
      3400                     0    -448.384916719206    9.797313739213099     8.30075787580126    52.09488465786458   -24.23102773364098    23.87186414895556    1.703600372713054  0.03489630998021614   0.1284156357842541
      3410                     0    -448.385238175303     9.79599330740084    8.301592506562079    52.09890470677417    119.6997726382024   -119.0934476407309    1.254940476089985  0.03465797071138754    0.131320428135425
      3420                     0   -448.3855900336872    9.796981471083495    8.300503061274508    52.10256430272026   -7.170920900684784    8.466778459427502    1.225210019892089  0.03453970110122453   0.1270140890080894
      3430                     0   -448.3859852858622    9.797256392458772    8.300010300201592    52.10701332864461    -52.4540187456609    49.54488669320202    1.961646702307894  0.03469247292734803   0.1294885280548862
      3440                     0    -448.386357223744      9.7960139997544    8.300749704441396    52.11145422687001    81.02007812093586   -82.79000206847995    1.629738289607676  0.03447907253442897   0.1305221068420466
      3450                     0   -448.3866774696317    9.796950054282741    8.299713198756715    52.11485766412552   -38.93170216768542    38.68958307586254    1.492497526114335  0.03432600599283869   0.1266222381165905
      3460                     0   -448.3870412036892    9.796472624201666    8.299851332742099    52.11896531412413    5.367899251592207   -6.886590277849865     1.72270127744592  0.03431028773315697   0.1267045764851108
      3470                     0   -448.3874195045622    9.796558875399919    8.299471421981199    52.12328627629859   -17.26615378305362    17.02484806140469    1.462677212365068  0.03410534811940405   0.1251888407268656
      3480                     0   -448.3878681054461    9.796417395108296    8.299437521085466    52.12844460572011   -19.17554455313266   -15.59862170779372   0.8232228408666777  0.03395850767840775   0.1246617360561403
      3490                     0   -448.3881963453702    9.795224405089833    8.299957883975969    52.13257558892526    112.9067914625603   -111.8241238116173    1.293250765168222  0.03381958210172009    0.128239679872179
      3500                     0    -448.388602418937    9.796076075188267    8.298898087417749    52.13716729588634  -0.5522763419668563    4.242786314819579   0.8933632596479344  0.03354522673122728    0.125120681950578
[...]
FullNghs:        10208 ave       10208 max       10208 min
Histogram: 1 0 0 0 0 0 0 0 0 0

Total # of neighbors = 10208
Ave neighs/atom = 164.64516
Neighbor list builds = 0
Dangerous builds = 0

# Minimize the with fire
  unfix           frb
  min_style       fire
  minimize        0.0 1.0e-3 10000 10000
  Parameters for fire:
    dmax  delaystep dtgrow dtshrink alpha0 alphashrink tmax tmin   integrator   halfstepback   abcfire  
     0.1     20      1.1     0.5     0.25     0.99      10  0.02 eulerimplicit      yes          no     
Per MPI rank memory allocation (min/avg/max) = 4.038 | 4.038 | 4.038 Mbytes
   Step          Temp          PotEng           Lx             Ly             Lz            Pxx            Pyy            Pzz            Fmax          Fnorm     
      9185                     0   -448.4315797578884    9.770895482430761    8.248048281359551    52.96649149860793  -0.1723919757461075  -0.1728825288458255 -0.002127305084848906 4.261055854259499e-05 0.0001750760201820915
      9186  1.561388651938939e-09   -448.4315797579129    9.770895482430761    8.248048281359551    52.96649149860793  -0.1738373192510195  -0.1748884539280804 -0.001776515356965242 4.25309377412792e-05 0.000173955406117178
Loop time of 0.00171848 on 1 procs for 1 steps with 62 atoms

79.5% CPU use with 1 MPI tasks x no OpenMP threads

Minimization stats:
  Stopping criterion = force tolerance
  Energy initial, next-to-last, final = 
     -448.431579757888  -448.431579757888  -448.431579757913
  Force two-norm initial, final = 0.00017507602 0.00017395541
  Force max component initial, final = 4.2610559e-05 4.2530938e-05
  Final line search alpha, max atom move = 0 0
  Iterations, force evaluations = 1 2

MPI task timing breakdown:
Section |  min time  |  avg time  |  max time  |%varavg| %total
---------------------------------------------------------------
Pair    | 0.0012335  | 0.0012335  | 0.0012335  |   0.0 | 71.78
Neigh   | 0          | 0          | 0          |   0.0 |  0.00
Comm    | 8.312e-06  | 8.312e-06  | 8.312e-06  |   0.0 |  0.48
Output  | 0          | 0          | 0          |   0.0 |  0.00
Modify  | 0          | 0          | 0          |   0.0 |  0.00
Other   |            | 0.0004767  |            |       | 27.74

Nlocal:             62 ave          62 max          62 min
Histogram: 1 0 0 0 0 0 0 0 0 0
Nghost:            521 ave         521 max         521 min
Histogram: 1 0 0 0 0 0 0 0 0 0
Neighs:              0 ave           0 max           0 min
Histogram: 1 0 0 0 0 0 0 0 0 0
FullNghs:        10208 ave       10208 max       10208 min
Histogram: 1 0 0 0 0 0 0 0 0 0

Total # of neighbors = 10208
Ave neighs/atom = 164.64516
Neighbor list builds = 0
Dangerous builds = 0

next nr
jump ${simname}.in loopmin
jump LCBOP.in loopmin

# Minimize the with cg + box/relax
  fix             frb all box/relax tri 0.0 couple none
  min_style       cg
  min_modify      line quadratic
  minimize        0.0 1.0e-3 10000 10000
WARNING: Energy due to 6 extra global DOFs will be included in minimizer energies
 (src/min.cpp:225)
Per MPI rank memory allocation (min/avg/max) = 5.163 | 5.163 | 5.163 Mbytes
   Step          Temp          PotEng           Lx             Ly             Lz            Pxx            Pyy            Pzz            Fmax          Fnorm     
      9186  1.561388651938939e-09   -448.4315797579125    9.770895482430761    8.248048281359551    52.96649149860793  -0.1738373191346754  -0.1748884539431623 -0.001776515369985147 4.253093776734475e-05 0.0001739554061175456
      9187  1.561388651938939e-09   -448.4315797580047    9.770894209373028    8.248047200216789    52.96649142808305  0.01296076906867317  0.01329444120656242   0.0118243923728265 4.434968059026552e-05 0.0001827093073601713
Loop time of 0.00120061 on 1 procs for 1 steps with 62 atoms

80.7% CPU use with 1 MPI tasks x no OpenMP threads

Minimization stats:
  Stopping criterion = force tolerance
  Energy initial, next-to-last, final = 
     -448.431579757912  -448.431579757912  -448.431579758005
  Force two-norm initial, final = 0.00074821431 0.00021586371
  Force max component initial, final = 0.00046594811 8.3024561e-05
  Final line search alpha, max atom move = 0.21461617 1.7818414e-05
  Iterations, force evaluations = 1 2

MPI task timing breakdown:
Section |  min time  |  avg time  |  max time  |%varavg| %total
---------------------------------------------------------------
Pair    | 0.00085741 | 0.00085741 | 0.00085741 |   0.0 | 71.41
Neigh   | 0          | 0          | 0          |   0.0 |  0.00
Comm    | 6.72e-06   | 6.72e-06   | 6.72e-06   |   0.0 |  0.56
Output  | 0          | 0          | 0          |   0.0 |  0.00
Modify  | 0          | 0          | 0          |   0.0 |  0.00
Other   |            | 0.0003365  |            |       | 28.03

Nlocal:             62 ave          62 max          62 min
Histogram: 1 0 0 0 0 0 0 0 0 0
Nghost:            521 ave         521 max         521 min
Histogram: 1 0 0 0 0 0 0 0 0 0
Neighs:              0 ave           0 max           0 min
Histogram: 1 0 0 0 0 0 0 0 0 0
FullNghs:        10208 ave       10208 max       10208 min
Histogram: 1 0 0 0 0 0 0 0 0 0

Total # of neighbors = 10208
Ave neighs/atom = 164.64516
Neighbor list builds = 0
Dangerous builds = 0

# Minimize the with fire
  unfix           frb
  min_style       fire
  minimize        0.0 1.0e-3 10000 10000
  Parameters for fire:
    dmax  delaystep dtgrow dtshrink alpha0 alphashrink tmax tmin   integrator   halfstepback   abcfire  
     0.1     20      1.1     0.5     0.25     0.99      10  0.02 eulerimplicit      yes          no     
Per MPI rank memory allocation (min/avg/max) = 4.038 | 4.038 | 4.038 Mbytes
   Step          Temp          PotEng           Lx             Ly             Lz            Pxx            Pyy            Pzz            Fmax          Fnorm     
      9187                     0   -448.4315797580047    9.770894209373028    8.248047200216789    52.96649142808305  0.01296076704816978  0.01329444054708805  0.01182438630232878 4.434968059757648e-05 0.0001827093074099382
      9188  1.700509372237803e-09    -448.431579758031    9.770894209373028    8.248047200216789    52.96649142808305  0.01131527896755468   0.0110401364297775  0.01219557256744261 4.429344781632237e-05 0.0001817451815644449
Loop time of 0.00120524 on 1 procs for 1 steps with 62 atoms

74.8% CPU use with 1 MPI tasks x no OpenMP threads

Minimization stats:
  Stopping criterion = force tolerance
  Energy initial, next-to-last, final = 
     -448.431579758005  -448.431579758005  -448.431579758031
  Force two-norm initial, final = 0.00018270931 0.00018174518
  Force max component initial, final = 4.4349681e-05 4.4293448e-05
  Final line search alpha, max atom move = 0 0
  Iterations, force evaluations = 1 2

MPI task timing breakdown:
Section |  min time  |  avg time  |  max time  |%varavg| %total
---------------------------------------------------------------
Pair    | 0.00079723 | 0.00079723 | 0.00079723 |   0.0 | 66.15
Neigh   | 0          | 0          | 0          |   0.0 |  0.00
Comm    | 5.567e-06  | 5.567e-06  | 5.567e-06  |   0.0 |  0.46
Output  | 0          | 0          | 0          |   0.0 |  0.00
Modify  | 0          | 0          | 0          |   0.0 |  0.00
Other   |            | 0.0004024  |            |       | 33.39

Nlocal:             62 ave          62 max          62 min
Histogram: 1 0 0 0 0 0 0 0 0 0
Nghost:            521 ave         521 max         521 min
Histogram: 1 0 0 0 0 0 0 0 0 0
Neighs:              0 ave           0 max           0 min
Histogram: 1 0 0 0 0 0 0 0 0 0
FullNghs:        10208 ave       10208 max       10208 min
Histogram: 1 0 0 0 0 0 0 0 0 0

Total # of neighbors = 10208
Ave neighs/atom = 164.64516
Neighbor list builds = 0
Dangerous builds = 0

next nr
jump ${simname}.in loopmin
jump LCBOP.in loopmin

# Minimize the with cg + box/relax
  fix             frb all box/relax tri 0.0 couple none
  min_style       cg
  min_modify      line quadratic
  minimize        0.0 1.0e-3 10000 10000
WARNING: Energy due to 6 extra global DOFs will be included in minimizer energies
 (src/min.cpp:225)
Per MPI rank memory allocation (min/avg/max) = 5.163 | 5.163 | 5.163 Mbytes
   Step          Temp          PotEng           Lx             Ly             Lz            Pxx            Pyy            Pzz            Fmax          Fnorm     
      9188  1.700509372237803e-09    -448.431579758031    9.770894209373028    8.248047200216789    52.96649142808305   0.0113152791605676  0.01104013645586013  0.01219557257205865 4.429344783685754e-05 0.0001817451815583849
      9189  1.700509372237803e-09   -448.4315797581166    9.770895487664848    8.248048253041464    52.96649889658789  -0.1933930302471399  -0.1939641987034019 -0.005839185665810894 4.212822483960855e-05 0.000169109927060835
Loop time of 0.00132787 on 1 procs for 1 steps with 62 atoms

70.3% CPU use with 1 MPI tasks x no OpenMP threads

Minimization stats:
  Stopping criterion = force tolerance
  Energy initial, next-to-last, final = 
     -448.431579758031  -448.431579758031  -448.431579758117
  Force two-norm initial, final = 0.00021326243 0.00082678863
  Force max component initial, final = 8.2853783e-05 0.00051677083
  Final line search alpha, max atom move = 1 0.00051677083
  Iterations, force evaluations = 1 2

MPI task timing breakdown:
Section |  min time  |  avg time  |  max time  |%varavg| %total
---------------------------------------------------------------
Pair    | 0.00082497 | 0.00082497 | 0.00082497 |   0.0 | 62.13
Neigh   | 0          | 0          | 0          |   0.0 |  0.00
Comm    | 5.468e-06  | 5.468e-06  | 5.468e-06  |   0.0 |  0.41
Output  | 0          | 0          | 0          |   0.0 |  0.00
Modify  | 0          | 0          | 0          |   0.0 |  0.00
Other   |            | 0.0004974  |            |       | 37.46

Nlocal:             62 ave          62 max          62 min
Histogram: 1 0 0 0 0 0 0 0 0 0
Nghost:            521 ave         521 max         521 min
Histogram: 1 0 0 0 0 0 0 0 0 0
Neighs:              0 ave           0 max           0 min
Histogram: 1 0 0 0 0 0 0 0 0 0
FullNghs:        10208 ave       10208 max       10208 min
Histogram: 1 0 0 0 0 0 0 0 0 0

Total # of neighbors = 10208
Ave neighs/atom = 164.64516
Neighbor list builds = 0
Dangerous builds = 0

# Minimize the with fire
  unfix           frb
  min_style       fire
  minimize        0.0 1.0e-3 10000 10000
  Parameters for fire:
    dmax  delaystep dtgrow dtshrink alpha0 alphashrink tmax tmin   integrator   halfstepback   abcfire  
     0.1     20      1.1     0.5     0.25     0.99      10  0.02 eulerimplicit      yes          no     
Per MPI rank memory allocation (min/avg/max) = 4.038 | 4.038 | 4.038 Mbytes
   Step          Temp          PotEng           Lx             Ly             Lz            Pxx            Pyy            Pzz            Fmax          Fnorm     
      9189                     0   -448.4315797581167    9.770895487664848    8.248048253041464    52.96649889658789  -0.1933930324356915  -0.1939641998021353 -0.005839192551121345 4.212822481134454e-05 0.0001691099270422075
      9190  1.456786444000478e-09   -448.4315797581386    9.770895487664848    8.248048253041464    52.96649889658789  -0.1947394045161895  -0.1958856681746423 -0.005520511893879983 4.20500227461534e-05 0.0001680201324051169
Loop time of 0.00119249 on 1 procs for 1 steps with 62 atoms

75.1% CPU use with 1 MPI tasks x no OpenMP threads

Minimization stats:
  Stopping criterion = force tolerance
  Energy initial, next-to-last, final = 
     -448.431579758117  -448.431579758117  -448.431579758139
  Force two-norm initial, final = 0.00016910993 0.00016802013
  Force max component initial, final = 4.2128225e-05 4.2050023e-05
  Final line search alpha, max atom move = 0 0
  Iterations, force evaluations = 1 2

MPI task timing breakdown:
Section |  min time  |  avg time  |  max time  |%varavg| %total
---------------------------------------------------------------
Pair    | 0.00080767 | 0.00080767 | 0.00080767 |   0.0 | 67.73
Neigh   | 0          | 0          | 0          |   0.0 |  0.00
Comm    | 5.739e-06  | 5.739e-06  | 5.739e-06  |   0.0 |  0.48
Output  | 0          | 0          | 0          |   0.0 |  0.00
Modify  | 0          | 0          | 0          |   0.0 |  0.00
Other   |            | 0.0003791  |            |       | 31.79

Nlocal:             62 ave          62 max          62 min
Histogram: 1 0 0 0 0 0 0 0 0 0
Nghost:            521 ave         521 max         521 min
Histogram: 1 0 0 0 0 0 0 0 0 0
Neighs:              0 ave           0 max           0 min
Histogram: 1 0 0 0 0 0 0 0 0 0
FullNghs:        10208 ave       10208 max       10208 min
Histogram: 1 0 0 0 0 0 0 0 0 0

Total # of neighbors = 10208
Ave neighs/atom = 164.64516
Neighbor list builds = 0
Dangerous builds = 0

next nr
jump ${simname}.in loopmin
jump LCBOP.in loopmin

# Minimize the with cg + box/relax
  fix             frb all box/relax tri 0.0 couple none
  min_style       cg
  min_modify      line quadratic
  minimize        0.0 1.0e-3 10000 10000
Per MPI rank memory allocation (min/avg/max) = 5.163 | 5.163 | 5.163 Mbytes
   Step          Temp          PotEng           Lx             Ly             Lz            Pxx            Pyy            Pzz            Fmax          Fnorm     
WARNING: Too many warnings: 101 vs 100. All future warnings will be suppressed (src/thermo.cpp:472)
      9190  1.456786444000478e-09   -448.4315797581387    9.770895487664848    8.248048253041464    52.96649889658789  -0.1947394046692001   -0.195885668143803 -0.005520511892495725 4.205002283766811e-05 0.0001680201323457224
      9191  1.456786444000478e-09   -448.4315797582487    9.770894089839908    8.248047066129708    52.96649868178227  0.01058612483900003   0.0109660367095902 0.009500482842980423 4.405095845128835e-05 0.0001773039328904883
Loop time of 0.00140468 on 1 procs for 1 steps with 62 atoms

83.3% CPU use with 1 MPI tasks x no OpenMP threads

Minimization stats:
  Stopping criterion = force tolerance
  Energy initial, next-to-last, final = 
     -448.431579758139  -448.431579758139  -448.431579758249
  Force two-norm initial, final = 0.00083080932 0.00020625284
  Force max component initial, final = 0.00052189019 7.9309135e-05
  Final line search alpha, max atom move = 0.19161119 1.5196518e-05
  Iterations, force evaluations = 1 2

MPI task timing breakdown:
Section |  min time  |  avg time  |  max time  |%varavg| %total
---------------------------------------------------------------
Pair    | 0.001036   | 0.001036   | 0.001036   |   0.0 | 73.75
Neigh   | 0          | 0          | 0          |   0.0 |  0.00
Comm    | 7.244e-06  | 7.244e-06  | 7.244e-06  |   0.0 |  0.52
Output  | 0          | 0          | 0          |   0.0 |  0.00
Modify  | 0          | 0          | 0          |   0.0 |  0.00
Other   |            | 0.0003614  |            |       | 25.73

Nlocal:             62 ave          62 max          62 min
Histogram: 1 0 0 0 0 0 0 0 0 0
Nghost:            521 ave         521 max         521 min
Histogram: 1 0 0 0 0 0 0 0 0 0
Neighs:              0 ave           0 max           0 min
Histogram: 1 0 0 0 0 0 0 0 0 0
FullNghs:        10208 ave       10208 max       10208 min
Histogram: 1 0 0 0 0 0 0 0 0 0

Total # of neighbors = 10208
Ave neighs/atom = 164.64516
Neighbor list builds = 0
Dangerous builds = 0

# Minimize the with fire
  unfix           frb
  min_style       fire
  minimize        0.0 1.0e-3 10000 10000
  Parameters for fire:
    dmax  delaystep dtgrow dtshrink alpha0 alphashrink tmax tmin   integrator   halfstepback   abcfire  
     0.1     20      1.1     0.5     0.25     0.99      10  0.02 eulerimplicit      yes          no     
Per MPI rank memory allocation (min/avg/max) = 4.038 | 4.038 | 4.038 Mbytes
   Step          Temp          PotEng           Lx             Ly             Lz            Pxx            Pyy            Pzz            Fmax          Fnorm     
      9191                     0   -448.4315797582486    9.770894089839908    8.248047066129708    52.96649868178227  0.01058612314971039   0.0109660359782913 0.009500476958390673 4.405095846306579e-05 0.0001773039328577226
      9192  1.601380092053979e-09   -448.4315797582739    9.770894089839908    8.248047066129708    52.96649868178227 0.009016401880331312 0.008768137632948409 0.009843493731109591 4.399841421349126e-05 0.0001764588811638771
Loop time of 0.00112112 on 1 procs for 1 steps with 62 atoms

83.2% CPU use with 1 MPI tasks x no OpenMP threads

Minimization stats:
  Stopping criterion = force tolerance
  Energy initial, next-to-last, final = 
     -448.431579758249  -448.431579758249  -448.431579758274
  Force two-norm initial, final = 0.00017730393 0.00017645888
  Force max component initial, final = 4.4050958e-05 4.3998414e-05
  Final line search alpha, max atom move = 0 0
  Iterations, force evaluations = 1 2

MPI task timing breakdown:
Section |  min time  |  avg time  |  max time  |%varavg| %total
---------------------------------------------------------------
Pair    | 0.00082904 | 0.00082904 | 0.00082904 |   0.0 | 73.95
Neigh   | 0          | 0          | 0          |   0.0 |  0.00
Comm    | 5.646e-06  | 5.646e-06  | 5.646e-06  |   0.0 |  0.50
Output  | 0          | 0          | 0          |   0.0 |  0.00
Modify  | 0          | 0          | 0          |   0.0 |  0.00
Other   |            | 0.0002864  |            |       | 25.55

Nlocal:             62 ave          62 max          62 min
Histogram: 1 0 0 0 0 0 0 0 0 0
Nghost:            521 ave         521 max         521 min
Histogram: 1 0 0 0 0 0 0 0 0 0
Neighs:              0 ave           0 max           0 min
Histogram: 1 0 0 0 0 0 0 0 0 0
FullNghs:        10208 ave       10208 max       10208 min
Histogram: 1 0 0 0 0 0 0 0 0 0

Total # of neighbors = 10208
Ave neighs/atom = 164.64516
Neighbor list builds = 0
Dangerous builds = 0

next nr
jump ${simname}.in loopmin
jump LCBOP.in loopmin

variable        energy equal pe
fix             output all ave/time 1 1 1 v_energy file ${simname}_energy.data
fix             output all ave/time 1 1 1 v_energy file LCBOP_energy.data
dump            dump1 all custom 1 ${simname}.lammpstrj id type x y z fx fy fz
dump            dump1 all custom 1 LCBOP.lammpstrj id type x y z fx fy fz
dump_modify     dump1 sort id

fix             nve all nve
run             0
Per MPI rank memory allocation (min/avg/max) = 4.038 | 4.038 | 4.038 Mbytes
   Step          Temp          PotEng           Lx             Ly             Lz            Pxx            Pyy            Pzz            Fmax          Fnorm     
      9192  1.601380092053979e-09   -448.4315797582742    9.770894089839908    8.248047066129708    52.96649868178227   0.0090164019940163 0.008768137634866904 0.009843493750791974 4.399841419988422e-05 0.0001764588811737786
Loop time of 8.91e-07 on 1 procs for 0 steps with 62 atoms

1122.3% CPU use with 1 MPI tasks x no OpenMP threads

MPI task timing breakdown:
Section |  min time  |  avg time  |  max time  |%varavg| %total
---------------------------------------------------------------
Pair    | 0          | 0          | 0          |   0.0 |  0.00
Neigh   | 0          | 0          | 0          |   0.0 |  0.00
Comm    | 0          | 0          | 0          |   0.0 |  0.00
Output  | 0          | 0          | 0          |   0.0 |  0.00
Modify  | 0          | 0          | 0          |   0.0 |  0.00
Other   |            | 8.91e-07   |            |       |100.00

Nlocal:             62 ave          62 max          62 min
Histogram: 1 0 0 0 0 0 0 0 0 0
Nghost:            521 ave         521 max         521 min
Histogram: 1 0 0 0 0 0 0 0 0 0
Neighs:              0 ave           0 max           0 min
Histogram: 1 0 0 0 0 0 0 0 0 0
FullNghs:        10208 ave       10208 max       10208 min
Histogram: 1 0 0 0 0 0 0 0 0 0

Total # of neighbors = 10208
Ave neighs/atom = 164.64516
Neighbor list builds = 0
Dangerous builds = 0
Total wall time: 0:00:05
