ITEM: TIMESTEP
9192
ITEM: NUMBER OF ATOMS
62
ITEM: BOX BOUNDS xy xz yz pp pp pp
-3.9641813947348621e+00 1.5040264117963639e+01 5.2383294935937244e+00
-2.0506403095405932e+00 8.3002631740148480e+00 -3.9952219292648699e+00
-1.5037745437910595e+00 5.1462724137991209e+01 -2.1028564174257336e+00
ITEM: ATOMS id type x y z fx fy fz
1 1 13.4406 7.45999 18.4867 1.2783e-05 7.6477e-06 -2.52637e-05
2 1 -0.335515 -0.110425 18.4029 1.35096e-05 9.1576e-06 -3.63748e-05
3 1 -0.609765 -0.261123 22.167 6.12835e-06 3.13477e-06 -4.13338e-05
4 1 0.628739 0.419474 22.0128 9.35726e-06 6.0827e-06 -4.39984e-05
5 1 9.55842 1.27368 18.5903 1.17434e-05 1.23925e-05 -2.45334e-05
6 1 1.15334 1.7271 18.7668 2.03568e-05 5.90525e-06 -4.56779e-06
7 1 0.697223 1.82597 22.0651 1.05236e-05 1.00036e-05 -2.46115e-05
8 1 1.94293 2.48938 21.8693 1.39765e-05 9.20924e-06 -1.17849e-05
9 1 1.24023 3.1828 18.945 6.13534e-06 -6.579e-07 9.07972e-06
10 1 2.43253 3.95214 19.1007 1.38388e-07 1.34949e-06 -3.45601e-06
11 1 2.13324 3.78769 22.3836 2.25056e-07 -7.34007e-07 5.92815e-06
12 1 3.42189 4.3817 22.5393 -2.00424e-06 -5.14044e-06 -7.30969e-06
13 1 2.42536 5.36442 18.8367 9.55562e-06 1.11676e-06 -1.08293e-05
14 1 3.65302 6.06899 18.7049 8.37531e-06 3.2709e-06 -1.64061e-05
15 1 3.40288 5.85899 22.4758 -2.93257e-07 -3.64187e-06 -1.29431e-05
16 1 4.61332 6.59109 22.3674 -2.1564e-06 -1.51399e-07 -2.60625e-05
17 1 6.13717 7.49944 18.5902 1.60435e-05 3.98737e-06 -2.2878e-05
18 1 2.01382 0.16126 18.7668 1.53598e-05 1.41384e-05 -5.09812e-06
19 1 1.85274 -0.276761 22.0651 1.37013e-05 2.13757e-06 -2.79711e-05
20 1 3.0806 0.419128 21.8693 1.41349e-05 6.19301e-06 -1.47472e-05
21 1 3.73207 2.12485 20.1852 -2.05468e-05 -1.12264e-05 -2.20989e-06
22 1 2.97904 1.71104 21.2991 2.05468e-05 1.12264e-05 2.20989e-06
23 1 3.63051 3.41675 19.615 -1.41349e-05 -6.19302e-06 1.47473e-05
24 1 4.85837 4.11264 19.4192 -1.37013e-05 -2.13757e-06 2.79712e-05
25 1 4.69729 3.67462 22.7175 -1.53598e-05 -1.41384e-05 5.09816e-06
26 1 5.81227 4.58449 22.8941 -1.60435e-05 -3.98736e-06 2.28781e-05
27 1 4.88132 5.44755 18.9988 3.84777e-06 -3.78381e-06 7.99108e-06
28 1 6.11537 6.13854 18.8914 2.40192e-06 3.55787e-06 1.4113e-06
29 1 5.83407 5.94539 22.593 -2.40193e-06 -3.55785e-06 -1.41113e-06
30 1 7.06812 6.63638 22.4855 -3.84778e-06 3.78384e-06 -7.99093e-06
31 1 3.28922 -0.545822 18.945 2.00424e-06 5.14044e-06 7.3097e-06
32 1 4.57787 0.0481966 19.1007 -2.25053e-07 7.34003e-07 -5.92818e-06
33 1 4.27858 -0.116262 22.3836 -1.38387e-07 -1.34949e-06 3.45604e-06
34 1 5.47088 0.653081 22.5393 -6.13534e-06 6.579e-07 -9.07973e-06
35 1 4.76818 1.3465 19.615 -1.39765e-05 -9.20925e-06 1.17849e-05
36 1 6.01389 2.00991 19.4192 -1.05236e-05 -1.00036e-05 2.46114e-05
37 1 5.55777 2.10878 22.7175 -2.03568e-05 -5.90525e-06 4.56775e-06
38 1 6.92359 2.5622 22.8941 -1.17434e-05 -1.23924e-05 2.45333e-05
39 1 6.08237 3.41641 19.4715 -9.35726e-06 -6.0827e-06 4.39984e-05
40 1 7.32087 4.097 19.3173 -6.12835e-06 -3.13478e-06 4.13338e-05
41 1 7.04663 3.94631 23.0814 -1.35096e-05 -9.15761e-06 3.63748e-05
42 1 8.27974 4.62394 22.9976 -1.2783e-05 -7.64771e-06 2.52637e-05
43 1 7.33612 5.49284 19.1169 2.1564e-06 1.51404e-07 2.60625e-05
44 1 8.54656 6.22494 19.0085 2.93256e-07 3.64187e-06 1.29431e-05
45 1 8.29642 6.01493 22.7794 -8.37531e-06 -3.27089e-06 1.64062e-05
46 1 9.52408 6.71951 22.6476 -9.55562e-06 -1.11676e-06 1.08293e-05
47 1 5.76619 -0.715004 18.8367 5.19264e-06 8.3418e-06 -1.28267e-05
48 1 7.01913 -0.0564089 18.7049 5.72664e-06 7.35139e-06 -1.83399e-05
49 1 6.70774 -0.154959 22.4758 -3.07451e-06 1.06442e-06 -1.27893e-05
50 1 7.97466 0.474338 22.3674 -1.56186e-06 -1.21012e-06 -2.44768e-05
51 1 7.15305 1.31362 18.9988 -1.65083e-06 5.48734e-06 4.1483e-06
52 1 8.39794 1.98488 18.8914 3.10887e-06 1.99818e-06 -1.13992e-06
53 1 8.08407 1.851 22.5929 -3.10889e-06 -1.99817e-06 1.13975e-06
54 1 9.32896 2.52226 22.4855 1.65082e-06 -5.48733e-06 -4.14846e-06
55 1 8.50734 3.36154 19.1169 1.56186e-06 1.21012e-06 2.44767e-05
56 1 9.77427 3.99084 19.0085 3.07451e-06 -1.06442e-06 1.27893e-05
57 1 9.46288 3.89229 22.7794 -5.72665e-06 -7.35139e-06 1.83398e-05
58 1 10.7158 4.55089 22.6476 -5.19264e-06 -8.3418e-06 1.28266e-05
59 1 9.75931 5.437 18.9518 5.89418e-06 3.18333e-06 9.36546e-07
60 1 10.9899 6.11327 18.8515 6.25249e-06 4.83326e-06 -5.94841e-06
61 1 10.7304 5.97066 22.6328 -6.25249e-06 -4.83326e-06 5.94841e-06
62 1 11.961 6.64692 22.5326 -5.89418e-06 -3.18333e-06 -9.36546e-07
