LAMMPS (2 Aug 2023)
variable        simname index Tersoff
log             ${simname}.log
log             Tersoff.log
