ITEM: TIMESTEP
130222
ITEM: NUMBER OF ATOMS
62
ITEM: BOX BOUNDS xy xz yz pp pp pp
-9.1699440268783690e+00 1.5361874868723651e+01 5.5127999205224860e+00
-4.3126958876328203e+00 8.2668008502525900e+00 -9.1538442375775020e+00
-4.2231417527976083e+00 5.4182091346998142e+01 -4.3983743192802081e+00
ITEM: ATOMS id type x y z fx fy fz
1 1 11.7495 6.5429 17.861 -0.000643018 -0.000222942 -0.000866611
2 1 -2.34475 -0.955269 17.7754 -0.000656935 -0.000209585 0.00108148
3 1 -3.02556 -1.31743 21.459 -0.000321195 -0.000411097 0.000108401
4 1 -1.76079 -0.644567 21.3109 -0.000372691 -0.000396024 -0.000231418
5 1 -2.06484 0.420258 18.1559 7.3221e-06 -0.000521616 9.64707e-05
6 1 -0.694063 0.761254 18.386 -0.000194012 0.000225613 -0.000838863
7 1 -1.6189 0.787761 21.4728 -0.000457768 -0.000572097 -2.72168e-05
8 1 -0.325377 1.44384 21.3509 -0.000140189 -0.000816637 0.00111332
9 1 -0.65622 2.19768 18.5558 0.000397195 -0.000750122 -0.000258131
10 1 0.535337 3.01805 18.6582 5.74267e-05 -0.000350904 0.000679966
11 1 -0.0303396 2.71715 21.9559 4.35324e-05 -0.000303444 -0.000664189
12 1 1.31585 3.24686 22.0583 -0.000458551 0.000297562 -0.000368171
13 1 0.5825 4.42511 18.3039 -0.000275263 -0.000445204 0.000505463
14 1 1.83509 5.13278 18.1576 -0.000457957 -8.12871e-05 6.60559e-05
15 1 1.2164 4.69542 21.9493 -0.000128813 -0.000150659 4.46352e-05
16 1 2.42561 5.43979 21.7146 5.44221e-05 -0.000229527 0.000915043
17 1 -1.04762 -1.49181 18.1559 -0.00121048 0.000103283 0.000217426
18 1 0.00117831 -0.545584 18.386 0.000127113 0.000468283 -0.000489021
19 1 -0.493685 -1.3273 21.4729 -0.000511812 -0.00061729 -0.000334666
20 1 0.773236 -0.621217 21.3509 -0.000514652 -0.000174679 4.20636e-05
21 1 1.76221 1.22965 19.8741 0.00013864 0.000219116 -1.05504e-05
22 1 0.767185 0.700315 20.7401 -0.000138637 -0.00021912 1.05485e-05
23 1 1.75616 2.55118 19.2632 0.000514647 0.000174671 -4.20604e-05
24 1 3.02308 3.25726 19.1413 0.000511822 0.000617293 0.000334666
25 1 2.52821 2.47555 22.2281 -0.000127112 -0.000468282 0.000489021
26 1 3.57701 3.42177 22.4582 0.00121049 -0.000103286 -0.000217426
27 1 3.09782 4.5825 18.5924 -0.000430545 0.000651577 0.000793193
28 1 4.36276 5.30457 18.5587 -0.000212781 0.000298104 -0.000399615
29 1 3.67943 4.80651 22.0554 0.000212781 -0.000298106 0.000399616
30 1 4.94437 5.52859 22.0218 0.000430547 -0.00065157 -0.000793195
31 1 1.21354 -1.31689 18.5558 0.000458546 -0.000297565 0.000368172
32 1 2.55973 -0.787183 18.6582 -4.3533e-05 0.000303442 0.000664188
33 1 1.99405 -1.08809 21.9559 -5.74348e-05 0.000350911 -0.000679969
34 1 3.18561 -0.267716 22.0583 -0.000397194 0.000750116 0.000258131
35 1 2.85477 0.486125 19.2632 0.000140175 0.000816639 -0.00111331
36 1 4.14829 1.1422 19.1413 0.00045777 0.0005721 2.72185e-05
37 1 3.22345 1.16871 22.2281 0.000194014 -0.000225615 0.000838863
38 1 4.59424 1.5097 22.4582 -7.32111e-06 0.000521619 -9.64709e-05
39 1 4.29018 2.57453 19.3032 0.000372691 0.000396029 0.000231422
40 1 5.55495 3.24739 19.1551 0.000321187 0.000411098 -0.0001084
41 1 4.87414 2.88523 22.8387 0.00065694 0.000209589 -0.00108148
42 1 6.15789 3.56819 22.7531 0.000643023 0.000222942 0.000866605
43 1 5.61658 4.67129 18.8995 -5.44213e-05 0.000229532 -0.000915044
44 1 6.82579 5.41567 18.6648 0.000128813 0.000150661 -4.46344e-05
45 1 6.2071 4.97831 22.4565 0.000457954 8.12754e-05 -6.60545e-05
46 1 7.45969 5.68598 22.3102 0.000275267 0.000445205 -0.000505463
47 1 3.75295 -1.53435 18.3039 -0.000434093 -0.0001302 0.000319783
48 1 5.03978 -0.891049 18.1576 -0.000558173 9.22068e-05 -1.3659e-05
49 1 4.33132 -1.15967 21.9493 -0.000486076 0.000327117 0.000331454
50 1 5.62434 -0.572837 21.7146 -7.37371e-06 0.000161028 0.00068171
51 1 5.28907 0.463628 18.5924 0.000220059 -0.000445543 0.000866091
52 1 6.59474 1.10913 18.5587 -7.75364e-05 -6.61998e-05 -0.00023348
53 1 5.79982 0.820834 22.0554 7.75347e-05 6.61965e-05 0.000233479
54 1 7.1055 1.46633 22.0217 -0.00022005 0.000445541 -0.000866093
55 1 6.77022 2.5028 18.8995 7.37469e-06 -0.000161031 -0.000681709
56 1 8.06325 3.08963 18.6648 0.000486083 -0.000327114 -0.000331455
57 1 7.35479 2.82101 22.4565 0.000558163 -9.22015e-05 1.36599e-05
58 1 8.64162 3.46431 22.3102 0.000434094 0.000130199 -0.000319784
59 1 7.98823 4.5419 18.5758 -0.00020704 -0.000167634 -9.98271e-06
60 1 9.23259 5.20391 18.3029 -0.000231375 -7.83365e-05 -0.00025271
61 1 8.67477 4.90718 22.3113 0.000231377 7.83341e-05 0.00025271
62 1 9.91914 5.56918 22.0383 0.000207033 0.000167638 9.98341e-06
