units           real
atom_style      charge
boundary        p p p
processors		  * * 1
read_data		    AB1_charge.data
Reading data file ...
  triclinic box = (0 0 0) to (9.8329752 8.3524793 49.95895) with tilt (5.1889168 -0.12492273 -0.078983728)
WARNING: Triclinic box skew is large. LAMMPS will run inefficiently. (src/domain.cpp:220)
  1 by 1 by 1 MPI processor grid
  reading atoms ...
  62 atoms
  read_data CPU = 0.004 seconds
mass            1 12.011

# Define potentials
pair_style      reax/c NULL
pair_coeff      * * ffield.reax.cho C
Reading potential file ffield.reax.cho with DATE: 2011-02-18
neigh_modify    every 1 delay 0 check yes
fix             1 all qeq/reax 1 0.0 10.0 1.0e-6 reax/c


# Variable
variable        thermofrq equal 100
variable        Nloop equal 100     # number of loop to run
variable        binding equal pe


# Output
thermo          ${thermofrq}
thermo          100
thermo_style    custom step temp pe press lx ly xy
thermo_modify   line one format float %20.16g
thermo_modify   flush yes norm no lost warn

# Minimize the system in loops
timestep        1.0e-3
variable        nr loop ${Nloop}
variable        nr loop 100
label           loopmin

# Minimize the with cg + box/relax
  fix             frb all box/relax tri 0.0 couple none
  min_style       cg
  min_modify      line quadratic
  minimize        0.0 2.306e-2 10000 10000

CITE-CITE-CITE-CITE-CITE-CITE-CITE-CITE-CITE-CITE-CITE-CITE-CITE

Your simulation uses code contributions which should be cited:

- pair reaxff command: doi:10.1016/j.parco.2011.08.005

@Article{Aktulga12,
 author = {H. M. Aktulga and J. C. Fogarty and S. A. Pandit and A. Y. Grama},
 title = {Parallel Reactive Molecular Dynamics: {N}umerical Methods and Algorithmic Techniques},
 journal = {Parallel Computing},
 year =    2012,
 volume =  38,
 number =  {4--5},
 pages =   {245--259}
}

- fix qeq/reaxff command: doi:10.1016/j.parco.2011.08.005

@Article{Aktulga12,
 author = {H. M. Aktulga and J. C. Fogarty and S. A. Pandit and A. Y. Grama},
 title = {Parallel Reactive Molecular Dynamics: {N}umerical Methods and Algorithmic Techniques},
 journal = {Parallel Computing},
 year =    2012,
 volume =  38,
 pages =   {245--259}
}

CITE-CITE-CITE-CITE-CITE-CITE-CITE-CITE-CITE-CITE-CITE-CITE-CITE

Neighbor list info ...
  update: every = 1 steps, delay = 0 steps, check = yes
  max neighbors/atom: 2000, page size: 100000
  master list distance cutoff = 12
  ghost atom cutoff = 12
  binsize = 6, bins = 3 2 9
  2 neighbor lists, perpetual/occasional/extra = 2 0 0
  (1) pair reax/c, perpetual
      attributes: half, newton off, ghost
      pair build: half/bin/newtoff/ghost
      stencil: full/ghost/bin/3d
      bin: standard
  (2) fix qeq/reax, perpetual, copy from (1)
      attributes: half, newton off
      pair build: copy
      stencil: none
      bin: none
WARNING: Energy due to 6 extra global DOFs will be included in minimizer energies
 (src/min.cpp:225)
Per MPI rank memory allocation (min/avg/max) = 21.23 | 21.23 | 21.23 Mbytes
   Step          Temp          PotEng         Press            Lx             Ly             Xy      
         0                     0   -11336.28249476273    136645.2751171942         9.8329751589    8.352479281900001         5.1889167701
       100                     0   -11560.63708946995     126106.745501769    9.931304910489038    8.433526465780735    5.192800746235703
       200                     0   -11715.67875419221     63503.1368999585    10.02963466207808    8.513328681341813    5.201865926850471
       300                     0   -11755.68695573782   -596.7161083234788    10.09060145375678    8.537169795952344    5.271073705629042
       400                     0   -11774.58710263594    37.80050748923924    10.10393159534234    8.519737089248387     5.36940345721803
       500                     0   -11818.80472492981   -2695.762490852838    10.10226106315022    8.502436575253357    5.449888092349751
       600                     0   -11858.12700774254   -2791.396091130109    10.09468956403454    8.488400384781411    5.460340994948715
       644                     0   -11864.54932201017   -592.3159621858881    10.09322973044965    8.485418460007759    5.462578945978596
Loop time of 6.41437 on 1 procs for 644 steps with 62 atoms

99.7% CPU use with 1 MPI tasks x no OpenMP threads

Minimization stats:
  Stopping criterion = linesearch alpha is zero
  Energy initial, next-to-last, final = 
     -11336.2824947627  -11864.5493220653  -11864.5493220102
  Force two-norm initial, final = 16792.705 526.27314
  Force max component initial, final = 11993.263 165.5971
  Final line search alpha, max atom move = 2.4543711e-14 4.0643674e-12
  Iterations, force evaluations = 644 1084

MPI task timing breakdown:
Section |  min time  |  avg time  |  max time  |%varavg| %total
---------------------------------------------------------------
Pair    | 5.7438     | 5.7438     | 5.7438     |   0.0 | 89.55
Neigh   | 0          | 0          | 0          |   0.0 |  0.00
Comm    | 0.0060275  | 0.0060275  | 0.0060275  |   0.0 |  0.09
Output  | 0.018688   | 0.018688   | 0.018688   |   0.0 |  0.29
Modify  | 0.62505    | 0.62505    | 0.62505    |   0.0 |  9.74
Other   |            | 0.02077    |            |       |  0.32

Nlocal:             62 ave          62 max          62 min
Histogram: 1 0 0 0 0 0 0 0 0 0
Nghost:            891 ave         891 max         891 min
Histogram: 1 0 0 0 0 0 0 0 0 0
Neighs:          18395 ave       18395 max       18395 min
Histogram: 1 0 0 0 0 0 0 0 0 0

Total # of neighbors = 18395
Ave neighs/atom = 296.69355
Neighbor list builds = 0
Dangerous builds = 0

# Minimize the with fire
  unfix           frb
  min_style       fire
  minimize        0.0 2.306e-2 10000 10000
  Parameters for fire:
    dmax  delaystep dtgrow dtshrink alpha0 alphashrink tmax tmin   integrator   halfstepback   abcfire  
     0.1     20      1.1     0.5     0.25     0.99      10  0.02 eulerimplicit      yes          no     
Per MPI rank memory allocation (min/avg/max) = 20.09 | 20.09 | 20.09 Mbytes
   Step          Temp          PotEng         Press            Lx             Ly             Xy      
       644                     0   -11864.54932199997   -592.3159622455341    10.09322973044965    8.485418460007759    5.462578945978596
       700    0.8489936287914704   -11864.09661104873   -772.0848534812186    10.09322973044965    8.485418460007759    5.462578945978596
       800     28.49152966757517   -11869.71394828691   -6806.368982682319    10.09322973044965    8.485418460007759    5.462578945978596
       900     68.47012386746097   -11878.71628161264    -31438.3269802408    10.09322973044965    8.485418460007759    5.462578945978596
      1000     82.99413017158223   -11883.95823620568   -48552.46097789609    10.09322973044965    8.485418460007759    5.462578945978596
      1100     69.68099571140668   -11886.24634427003   -53775.11637499378    10.09322973044965    8.485418460007759    5.462578945978596
      1200     61.98641703485787   -11887.58822048654   -53122.23327274313    10.09322973044965    8.485418460007759    5.462578945978596
      1300     62.31562254778056   -11888.72389892315   -50867.05153933895    10.09322973044965    8.485418460007759    5.462578945978596
      1400     64.85317988682793   -11889.63135889914   -48760.05810662117    10.09322973044965    8.485418460007759    5.462578945978596
      1500     67.12146079392528   -11890.23531596418   -47453.55366775806    10.09322973044965    8.485418460007759    5.462578945978596
      1600  0.004486059161770391   -11890.42862227655   -47100.52907556383    10.09322973044965    8.485418460007759    5.462578945978596
      1700     0.918164429187377   -11890.62398977007   -47251.86283259324    10.09322973044965    8.485418460007759    5.462578945978596
      1800     3.353909264341598   -11891.09921686428   -47454.72078626409    10.09322973044965    8.485418460007759    5.462578945978596
      1900     6.290564074807286   -11891.66105850718   -47549.19450392458    10.09322973044965    8.485418460007759    5.462578945978596
      2000     8.724890782662714   -11892.15696643441    -47548.8642275271    10.09322973044965    8.485418460007759    5.462578945978596
      2100     10.03798742595603   -11892.51835130409   -47354.91670355201    10.09322973044965    8.485418460007759    5.462578945978596
      2200     10.52362947944058   -11892.75824933601   -47009.18905157857    10.09322973044965    8.485418460007759    5.462578945978596
      2300     10.89280212968534   -11892.92294166214   -46638.23950429525    10.09322973044965    8.485418460007759    5.462578945978596
      2400     11.41130717822452   -11893.06149815372   -46329.09461627983    10.09322973044965    8.485418460007759    5.462578945978596
      2500     12.15842068272612   -11893.21486771562   -46135.34349796402    10.09322973044965    8.485418460007759    5.462578945978596
      2600     13.16653989166712    -11893.4048245766   -46080.31615092339    10.09322973044965    8.485418460007759    5.462578945978596
      2700     14.37823136072612   -11893.62763796874   -46149.37080408674    10.09322973044965    8.485418460007759    5.462578945978596
      2800     15.64557477559259   -11893.85893631242   -46289.88060431038    10.09322973044965    8.485418460007759    5.462578945978596
      2900     16.79406073685073   -11894.06794381836   -46422.31717187519    10.09322973044965    8.485418460007759    5.462578945978596
      3000     17.70853093563191   -11894.23414314478   -46456.92211540769    10.09322973044965    8.485418460007759    5.462578945978596
      3100     18.39439282281455   -11894.35875486678   -46312.84667734517    10.09322973044965    8.485418460007759    5.462578945978596
      3200      18.9801025540979   -11894.46527408524   -45942.11048675294    10.09322973044965    8.485418460007759    5.462578945978596
      3300     19.65242928991516   -11894.58769223096   -45356.13696984317    10.09322973044965    8.485418460007759    5.462578945978596
      3400     20.55932654767717   -11894.75284716667     -44641.971556713    10.09322973044965    8.485418460007759    5.462578945978596
      3500     21.74185928509531   -11894.96810034347   -43952.71101312208    10.09322973044965    8.485418460007759    5.462578945978596
      3600     23.12710957105971   -11895.22010346376   -43466.27628839559    10.09322973044965    8.485418460007759    5.462578945978596
      3700      24.5628143361009   -11895.48111961312   -43323.33449666254    10.09322973044965    8.485418460007759    5.462578945978596
      3800     25.86444650269751   -11895.71759086661   -43571.86736881634    10.09322973044965    8.485418460007759    5.462578945978596
      3900     26.87087575763362   -11895.90026881915   -44151.59425768603    10.09322973044965    8.485418460007759    5.462578945978596
      4000     27.50379801383411   -11896.01501180971   -44928.60301770597    10.09322973044965    8.485418460007759    5.462578945978596
      4100      27.7967667364044   -11896.06801888109   -45750.78400477402    10.09322973044965    8.485418460007759    5.462578945978596
      4200     27.87020198007973   -11896.08124069526   -46487.25793137344    10.09322973044965    8.485418460007759    5.462578945978596
      4300   0.04841470768059233       -11896.0924805   -46661.74695558103    10.09322973044965    8.485418460007759    5.462578945978596
      4400    0.3608919407867629   -11896.15489755384   -46454.91953703894    10.09322973044965    8.485418460007759    5.462578945978596
      4500     0.921309061960819   -11896.26073065467   -46117.82240521134    10.09322973044965    8.485418460007759    5.462578945978596
      4600     1.589711674937841   -11896.38597268838   -45747.91297720654    10.09322973044965    8.485418460007759    5.462578945978596
      4700     2.223701129014863    -11896.5095745549   -45414.73506904631    10.09322973044965    8.485418460007759    5.462578945978596
      4800     2.758879924854763   -11896.62206651052   -45136.00474832681    10.09322973044965    8.485418460007759    5.462578945978596
      4900     3.235757502400487     -11896.724487413   -44901.65434355543    10.09322973044965    8.485418460007759    5.462578945978596
      5000     3.721986574590949   -11896.82320750584   -44699.69603140785    10.09322973044965    8.485418460007759    5.462578945978596
      5100     4.258839922503133    -11896.9260033471   -44523.86333405908    10.09322973044965    8.485418460007759    5.462578945978596
      5200      4.86764512851863   -11897.03897806903   -44372.45080739002    10.09322973044965    8.485418460007759    5.462578945978596
      5300     5.549804588700421   -11897.16395231178   -44247.02870684214    10.09322973044965    8.485418460007759    5.462578945978596
      5400      6.28236223385115   -11897.29751582865   -44151.51107545899    10.09322973044965    8.485418460007759    5.462578945978596
      5500     7.023775347789396   -11897.43243950252   -44090.72872653839    10.09322973044965    8.485418460007759    5.462578945978596
      5600     7.730127105077025   -11897.56087738348   -44068.57039719523    10.09322973044965    8.485418460007759    5.462578945978596
      5700     8.373617018815494   -11897.67784397133   -44086.33885274704    10.09322973044965    8.485418460007759    5.462578945978596
      5800     8.953769161899682   -11897.78329460513   -44141.95797037626    10.09322973044965    8.485418460007759    5.462578945978596
      5900     9.495547689829664   -11897.88179249006   -44230.22272771256    10.09322973044965    8.485418460007759    5.462578945978596
      6000     10.03516765794155   -11897.97992692196   -44343.74950838606    10.09322973044965    8.485418460007759    5.462578945978596
      6100     10.60054979573951   -11898.08276052682    -44474.0485953629    10.09322973044965    8.485418460007759    5.462578945978596
      6200     11.19605854873453    -11898.1910624504   -44612.33983077217    10.09322973044965    8.485418460007759    5.462578945978596
      6300     11.79903378846195   -11898.30069131692   -44750.11872437537    10.09322973044965    8.485418460007759    5.462578945978596
      6400     12.36987858764552   -11898.40443944746   -44879.67482423739    10.09322973044965    8.485418460007759    5.462578945978596
      6500     12.87106012530615   -11898.49549386668   -44994.65062782628    10.09322973044965    8.485418460007759    5.462578945978596
      6600     13.28626876287108    -11898.5709148865   -45090.54185603378    10.09322973044965    8.485418460007759    5.462578945978596
      6700     13.63086953427023   -11898.63352578815   -45165.03009886869    10.09322973044965    8.485418460007759    5.462578945978596
      6800     13.94869054267228   -11898.69131613243   -45218.13487731023    10.09322973044965    8.485418460007759    5.462578945978596
      6900     14.29642291626433   -11898.75459638388   -45252.10470618121    10.09322973044965    8.485418460007759    5.462578945978596
      7000       14.722576659652   -11898.83217020555   -45270.74628673359    10.09322973044965    8.485418460007759    5.462578945978596
      7100     15.25031666143725   -11898.92822208857   -45277.91896141107    10.09322973044965    8.485418460007759    5.462578945978596
      7200     15.87147967653313   -11899.04124056007   -45275.45154112148    10.09322973044965    8.485418460007759    5.462578945978596
      7300     16.55377938780336   -11899.16533975417   -45261.41447146022    10.09322973044965    8.485418460007759    5.462578945978596
      7400     17.25736533972853   -11899.29327562107    -45229.8560175211    10.09322973044965    8.485418460007759    5.462578945978596
      7500     17.95319403737699   -11899.41978398258    -45172.5263305995    10.09322973044965    8.485418460007759    5.462578945978596
      7600     18.63535524217396   -11899.54381370885   -45082.10771180821    10.09322973044965    8.485418460007759    5.462578945978596
      7700     19.32233240711014   -11899.66874475714   -44955.65990259212    10.09322973044965    8.485418460007759    5.462578945978596
      7800      20.0470455458459   -11899.80056901956   -44796.85109971662    10.09322973044965    8.485418460007759    5.462578945978596
      7900     20.84060115798566   -11899.94493318985   -44616.12899654917    10.09322973044965    8.485418460007759    5.462578945978596
      8000     21.71758182292648   -11900.10446974917   -44428.87428475293    10.09322973044965    8.485418460007759    5.462578945978596
      8100     22.66975249775822   -11900.27766063831   -44252.23480121148    10.09322973044965    8.485418460007759    5.462578945978596
      8200     23.67070734612188   -11900.45969309441    -44101.5812871075    10.09322973044965    8.485418460007759    5.462578945978596
      8300     24.68868349944961   -11900.64479393353   -43987.53343163939    10.09322973044965    8.485418460007759    5.462578945978596
      8400     25.70118278434245   -11900.82888623267   -43914.39637347607    10.09322973044965    8.485418460007759    5.462578945978596
      8500     26.70455581634954   -11901.01132526151   -43880.55052457035    10.09322973044965    8.485418460007759    5.462578945978596
      8600     27.71423337010213   -11901.19493121339   -43880.81152894443    10.09322973044965    8.485418460007759    5.462578945978596
      8700     28.75568210505866    -11901.3843376944   -43910.12044181937    10.09322973044965    8.485418460007759    5.462578945978596
      8800     29.85053105362908   -11901.58346763372   -43967.31173457649    10.09322973044965    8.485418460007759    5.462578945978596
      8900     31.00453331238585   -11901.79334925772   -44057.34330386893    10.09322973044965    8.485418460007759    5.462578945978596
      9000     32.20276119068364   -11902.01124993338   -44190.40814569536    10.09322973044965    8.485418460007759    5.462578945978596
      9100     33.41325989327019   -11902.23134748926   -44376.77378372643    10.09322973044965    8.485418460007759    5.462578945978596
      9200      34.5958031356428   -11902.44632442149   -44616.98991773754    10.09322973044965    8.485418460007759    5.462578945978596
      9300     35.71067618227725   -11902.64896315693   -44888.85184866682    10.09322973044965    8.485418460007759    5.462578945978596
      9400     36.72543784378912    -11902.8333745103   -45136.50678414857    10.09322973044965    8.485418460007759    5.462578945978596
      9500     37.62179051753924   -11902.99624787984   -45272.73147629442    10.09322973044965    8.485418460007759    5.462578945978596
      9600     38.40342836485252   -11903.13827846502   -45207.30728372975    10.09322973044965    8.485418460007759    5.462578945978596
      9700     39.10358389515378   -11903.26553881807   -44903.55635065961    10.09322973044965    8.485418460007759    5.462578945978596
      9800     39.78722309504526   -11903.38986497305   -44432.56610991993    10.09322973044965    8.485418460007759    5.462578945978596
      9900     40.52452544394466   -11903.52399625939   -43963.85625176058    10.09322973044965    8.485418460007759    5.462578945978596
     10000     41.32756801585603   -11903.67004880622   -43672.73424347107    10.09322973044965    8.485418460007759    5.462578945978596
     10100     42.11774502365094   -11903.81366153845    -43642.7253551391    10.09322973044965    8.485418460007759    5.462578945978596
     10200     42.78659749382717   -11903.93513314527   -43847.16786365179    10.09322973044965    8.485418460007759    5.462578945978596
     10300     43.28790813320703   -11904.02614067666    -44195.8289559716    10.09322973044965    8.485418460007759    5.462578945978596
     10400     43.65843255011045   -11904.09342549882   -44582.82431627599    10.09322973044965    8.485418460007759    5.462578945978596
     10500     43.96607005395352    -11904.1493319978    -44911.3234974392    10.09322973044965    8.485418460007759    5.462578945978596
     10600     44.25283704447229   -11904.20145953091   -45111.03515008157    10.09322973044965    8.485418460007759    5.462578945978596
     10644     44.37180632322047   -11904.22307711765   -45149.13559185705    10.09322973044965    8.485418460007759    5.462578945978596
Loop time of 53.769 on 1 procs for 10000 steps with 62 atoms

99.8% CPU use with 1 MPI tasks x no OpenMP threads

Minimization stats:
  Stopping criterion = max iterations
  Energy initial, next-to-last, final = 
         -11864.549322  -11904.2226013065  -11904.2230771177
  Force two-norm initial, final = 517.66999 30.217085
  Force max component initial, final = 165.5971 5.5009096
  Final line search alpha, max atom move = 0 0
  Iterations, force evaluations = 10000 10003

MPI task timing breakdown:
Section |  min time  |  avg time  |  max time  |%varavg| %total
---------------------------------------------------------------
Pair    | 48.204     | 48.204     | 48.204     |   0.0 | 89.65
Neigh   | 0          | 0          | 0          |   0.0 |  0.00
Comm    | 0.054466   | 0.054466   | 0.054466   |   0.0 |  0.10
Output  | 0.10752    | 0.10752    | 0.10752    |   0.0 |  0.20
Modify  | 5.354      | 5.354      | 5.354      |   0.0 |  9.96
Other   |            | 0.04886    |            |       |  0.09

Nlocal:             62 ave          62 max          62 min
Histogram: 1 0 0 0 0 0 0 0 0 0
Nghost:            835 ave         835 max         835 min
Histogram: 1 0 0 0 0 0 0 0 0 0
Neighs:          17638 ave       17638 max       17638 min
Histogram: 1 0 0 0 0 0 0 0 0 0

Total # of neighbors = 17638
Ave neighs/atom = 284.48387
Neighbor list builds = 0
Dangerous builds = 0

next nr
jump ${simname}.in loopmin
jump ReaxFF.in loopmin

# Minimize the with cg + box/relax
  fix             frb all box/relax tri 0.0 couple none
  min_style       cg
  min_modify      line quadratic
  minimize        0.0 2.306e-2 10000 10000
WARNING: Energy due to 6 extra global DOFs will be included in minimizer energies
 (src/min.cpp:225)
Per MPI rank memory allocation (min/avg/max) = 21.22 | 21.22 | 21.22 Mbytes
   Step          Temp          PotEng         Press            Lx             Ly             Xy      
     10644     44.37180632322047   -11904.22307720472   -45149.13559032785    10.09322973044965    8.485418460007759    5.462578945978596
     10700     44.37180632322047   -11916.84939043034    1858.826593162536    10.07587294233279    8.463626166124159    5.467601632835607
     10800     44.37180632322047   -11926.72948367276   -4039.959077721599    10.05958265795002    8.453033591784424    5.453427523429323
     10900     44.37180632322047    -11932.6557194888    -3595.48022266457    10.04748716580001    8.443512533986857    5.446042955112634
     11000     44.37180632322047   -11937.21675050365   -2706.702276611279     10.0354372203721    8.435559454764599    5.436343764426377
     11100     44.37180632322047   -11940.76009743706   -3192.331527806215    10.02436863775222    8.428638811491421    5.426606761815351
     11200     44.37180632322047   -11944.20565078493   -1504.617133290818    10.01266451269714    8.420856291891839    5.417365522494828
     11300     44.37180632322047   -11946.81396298041     1074.68723616822     10.0040178040167    8.415654283123972    5.409474586073922
     11400     44.37180632322047   -11948.19021232264    999.2759726410976     10.0009906113511       8.411946255121    5.409495237078276
     11500     44.37180632322047   -11949.34806583553   -31.14557956418455    9.999660783436424     8.40828384566522    5.412589174793037
     11600     44.37180632322047   -11950.59588863305   -100.4582346427118    9.999040537010769    8.403878729906685    5.418240214541167
     11700     44.37180632322047   -11952.20597688134   -1592.863349704105      9.9994146094011     8.39866248781513    5.426838570377339
     11800     44.37180632322047     -11954.887261865   -1730.956090873007    10.00032376159941    8.391269668767629    5.439869677142693
     11900     44.37180632322047   -11959.14966930638   -2618.964219678162    10.00098664678687    8.382600809488933    5.454408215364598
     12000     44.37180632322047    -11964.5522660326    432.2569288812001    9.998942989642103    8.372340755545705    5.466639263102413
     12100     44.37180632322047   -11967.72328646073     88.5068355413638    9.991486387877238    8.372631870008332    5.452993279825478
     12200     44.37180632322047   -11968.19648613871    874.4822217706904    9.988340100068474    8.373889233261773    5.445266529080493
     12300     44.37180632322047    -11968.4716353645   -1026.823157585734    9.987294412069396    8.374478054291137    5.442247433566288
     12400     44.37180632322047   -11968.69253525701   -818.1123241685542    9.986740316514748    8.374418675311128    5.441326403862977
     12500     44.37180632322047   -11968.87061432756    342.2079032798409    9.986330453848739     8.37415849670033    5.441066141219485
     12600     44.37180632322047   -11969.03218570906    1014.139585669271    9.986078570631349    8.373938816541292    5.440999548693337
     12700     44.37180632322047   -11969.18774804207    994.1785115180217    9.985963748627176    8.373797033925049    5.441015943011146
     12800     44.37180632322047   -11969.35535296475    301.0498472204983     9.98595481627253    8.373718603330865    5.441076521470871
     12900     44.37180632322047   -11969.50683183926    933.4327923669152    9.985777243729057     8.37348547066245    5.441163627443287
     13000     44.37180632322047   -11969.64986361891    11.13396981585283    9.985835169173336     8.37344328379746    5.441245671266988
     13100     44.37180632322047   -11969.78963611512   -3.330197827875498    9.985887081989667    8.373185282442424     5.44116262300241
     13200     44.37180632322047   -11969.95466808894    313.5792702213649    9.985569068217416    8.373119477838477    5.441465370651842
     13300     44.37180632322047   -11970.11550406066    1092.828372909364    9.985298304516697    8.372886121280864    5.441474544559618
     13400     44.37180632322047   -11970.28169797465    1100.013636931504    9.984725852500969    8.373073799164745    5.441731584255488
     13500     44.37180632322047   -11970.44509183764   -86.04908102029268    9.984962698184839    8.372853218669038    5.441298988170955
     13600     44.37180632322047   -11970.60103080555    1114.028439197281    9.984523572037366    8.372651298587796    5.441954207816459
     13700     44.37180632322047   -11970.77354652786   -612.8516480657048     9.98453188509774    8.372730141371829    5.442093674949502
     13800     44.37180632322047   -11970.94011669267   -59.68378569005924    9.985670385156892    8.371300301377669    5.440880214147493
     13900     44.37180632322047   -11971.10588202044    590.9826187213827    9.984227838398205    8.372027090997458    5.442174550507834
     14000     44.37180632322047   -11971.27205307019   -65.75733769277554    9.984738788807086    8.371406120614099    5.441593584054374
     14100     44.37180632322047   -11971.44091921608    200.1594963993322    9.984512667361832    8.371175478257982    5.441797198703853
     14200     44.37180632322047   -11971.61207855226    131.2675830172771    9.984281052585992    8.371014060585004    5.442522269129548
     14300     44.37180632322047   -11971.76383920429   -147.3977101108135    9.984317920457329    8.370704604972955    5.441844466952028
     14400     44.37180632322047   -11971.92040459423   -255.6938370811019    9.983983895650733    8.370652571935976    5.441985370173287
     14500     44.37180632322047   -11972.06544100694   -935.6490622274026    9.983874633793121    8.370572731040745    5.442632696915406
     14600     44.37180632322048   -11972.21439650912   -584.4024200108037    9.983742231539315     8.37025283810458    5.442735719587236
     14700     44.37180632322048   -11972.37091866838    348.9127958030116      9.9834775947027    8.369870881353474    5.442790986619011
     14800     44.37180632322048   -11972.53075828686    247.2487641488404    9.983527094832985    8.369453192420943    5.442555494596159
     14900     44.37180632322048   -11972.67239468666    983.1800067690848    9.983120399927799     8.36927344103953    5.442927878281781
     15000     44.37180632322048   -11972.82044696287    690.9986720885468    9.983003102601957    8.369055639997729    5.442976287891185
     15100     44.37180632322048    -11972.9654290786    1002.597605117333    9.982795886522537    8.368773192321045    5.443019381702151
     15200     44.37180632322048   -11973.10906063486    992.6547835316704    9.982635430270285    8.368527537631454    5.443061722270759
     15300     44.37180632322048   -11973.25318771631    1005.515080645117    9.982454306399294    8.368284636733819     5.44309783710588
     15400     44.37180632322048    -11973.3978978783    1043.159963252622    9.982262996253237    8.368035684416284     5.44313201636843
     15500     44.37180632322048   -11973.54360173253    479.6562918581473    9.982153836066729    8.367855197307389    5.443159041754515
     15600     44.37180632322048   -11973.68156264957    246.3430677099911    9.982098524207469     8.36756244264053    5.443022399446052
     15700     44.37180632322048   -11973.83622027042   -42.80179131097842    9.981925468740164    8.367328837940843    5.443084198528051
     15800     44.37180632322048   -11973.97878762698    51.07515227582891    9.981587466806673    8.367171416376955    5.443276986612814
     15900     44.37180632322048   -11974.12068514463    521.9982037551642    9.981328817244506    8.366851126367756     5.44332648756453
     16000     44.37180632322048   -11974.26820588345    260.6333130789498    9.981204467483737    8.366571491223851    5.443285201642531
     16100     44.37180632322048   -11974.41588489814   -117.3649770474261    9.981066083798595    8.366324792541638    5.443281977138197
     16200     44.37180632322048   -11974.56225302845   -304.8410306658014    9.980845145188747    8.366100071026588    5.443359082953767
     16300     44.37180632322048   -11974.71345459361    1046.029430052617    9.980405204245978    8.365666498512201    5.443460944669496
     16400     44.37180632322048   -11974.86105787494    50.91492720384898    9.980321120675221    8.365508200647708    5.443453272220679
     16500     44.37180632322048   -11975.01651072546   -320.0958962322564     9.98010655465662    8.365274243482745    5.443423511726318
     16600     44.37180632322048   -11975.17402716284   -348.3520249895985     9.97974815171186    8.365069456540203    5.443749885636705
     16700     44.37180632322048   -11975.32558786166    805.1333269774863    9.979387337594897     8.36458220989206    5.442842695158834
     16800     44.37180632322048   -11975.48576723774    275.1923812174529    9.979371850535767    8.364198464909281    5.443591017979602
     16900     44.37180632322048    -11975.6525561754     -120.19019979515    9.978974636377128    8.364064696017502    5.443896033572786
     17000     44.37180632322048   -11975.82458553742    132.9892176456657    9.979102315392348    8.363295546294225    5.442736511493083
     17100     44.37180632322048   -11976.00112058731    340.3278750978852    9.978528289250873    8.363127724900174    5.443638163748663
     17200     44.37180632322048   -11976.18729567463    1060.887586805785    9.978173525665058    8.362595766063523    5.443475713827365
     17300     44.37180632322048   -11976.37024011267    944.4809497506949    9.977847765380616    8.362254539714012    5.443819053594907
     17400     44.37180632322048     -11976.550124652   -114.0890027143626    9.977882681948222    8.361838026622943     5.44362095115344
     17497     44.37180632322048   -11976.74648585225    83.03152314660929    9.977233041648248    8.361628559056793    5.443848059858138
Loop time of 58.6799 on 1 procs for 6853 steps with 62 atoms

99.9% CPU use with 1 MPI tasks x no OpenMP threads

Minimization stats:
  Stopping criterion = max force evaluations
  Energy initial, next-to-last, final = 
     -11904.2230772047  -11976.7433057404  -11976.7464858522
  Force two-norm initial, final = 5995.3519 13.604085
  Force max component initial, final = 4280.6641 5.5591763
  Final line search alpha, max atom move = 1.7301153e-05 9.6180162e-05
  Iterations, force evaluations = 6853 10000

MPI task timing breakdown:
Section |  min time  |  avg time  |  max time  |%varavg| %total
---------------------------------------------------------------
Pair    | 52.543     | 52.543     | 52.543     |   0.0 | 89.54
Neigh   | 0.014121   | 0.014121   | 0.014121   |   0.0 |  0.02
Comm    | 0.057191   | 0.057191   | 0.057191   |   0.0 |  0.10
Output  | 0.050663   | 0.050663   | 0.050663   |   0.0 |  0.09
Modify  | 5.8502     | 5.8502     | 5.8502     |   0.0 |  9.97
Other   |            | 0.1646     |            |       |  0.28

Nlocal:             62 ave          62 max          62 min
Histogram: 1 0 0 0 0 0 0 0 0 0
Nghost:            883 ave         883 max         883 min
Histogram: 1 0 0 0 0 0 0 0 0 0
Neighs:          18210 ave       18210 max       18210 min
Histogram: 1 0 0 0 0 0 0 0 0 0

Total # of neighbors = 18210
Ave neighs/atom = 293.70968
Neighbor list builds = 7
Dangerous builds = 0

# Minimize the with fire
  unfix           frb
  min_style       fire
  minimize        0.0 2.306e-2 10000 10000
  Parameters for fire:
    dmax  delaystep dtgrow dtshrink alpha0 alphashrink tmax tmin   integrator   halfstepback   abcfire  
     0.1     20      1.1     0.5     0.25     0.99      10  0.02 eulerimplicit      yes          no     
Per MPI rank memory allocation (min/avg/max) = 20.1 | 20.1 | 20.1 Mbytes
   Step          Temp          PotEng         Press            Lx             Ly             Xy      
     17497                     0   -11976.74648586168  -0.5138072596587215    9.977233041648248    8.361628559056793    5.443848059858138
     17500  8.23582593414956e-08     -11976.746485874  -0.5142256861267227    9.977233041648248    8.361628559056793    5.443848059858138
     17600  0.004496267486100406   -11976.74745039023   -15.07792759034157    9.977233041648248    8.361628559056793    5.443848059858138
     17700    0.0296955450782988   -11976.75237272594   -62.03304073128648    9.977233041648248    8.361628559056793    5.443848059858138
     17800   0.07928494634864543   -11976.76164670505   -122.1733183420676    9.977233041648248    8.361628559056793    5.443848059858138
     17900    0.1537728125909072    -11976.7753515172   -203.5676818787963    9.977233041648248    8.361628559056793    5.443848059858138
     18000    0.2530758969787472   -11976.79350115054   -303.9869266375167    9.977233041648248    8.361628559056793    5.443848059858138
     18100    0.3768221284530509     -11976.816057909   -423.2553889417428    9.977233041648248    8.361628559056793    5.443848059858138
     18200    0.5245484606276202    -11976.8429578311   -561.3444292522693    9.977233041648248    8.361628559056793    5.443848059858138
     18300     0.695791052749596   -11976.87412530587   -717.3676800674006    9.977233041648248    8.361628559056793    5.443848059858138
     18400    0.8900499759269099   -11976.90947269537   -891.0325548298742    9.977233041648248    8.361628559056793    5.443848059858138
     18500     1.106741090224767   -11976.94889580078   -1083.169581972544    9.977233041648248    8.361628559056793    5.443848059858138
     18600     1.345190522084106   -11976.99227335926   -1295.333639063801    9.977233041648248    8.361628559056793    5.443848059858138
     18700     1.604661477541742   -11977.03947207209   -1529.542177293408    9.977233041648248    8.361628559056793    5.443848059858138
     18800     1.884373824462221   -11977.09035026937   -1788.156583130334    9.977233041648248    8.361628559056793    5.443848059858138
     18900       2.1834978827294    -11977.1447572459   -2073.175084288278    9.977233041648248    8.361628559056793    5.443848059858138
     19000     2.501142807731406   -11977.20253095062   -2385.346433994399    9.977233041648248    8.361628559056793    5.443848059858138
     19100      2.83636370868942   -11977.26349953993   -2724.171679943213    9.977233041648248    8.361628559056793    5.443848059858138
     19200     3.188176081222874   -11977.32748393589    -3088.51985475538    9.977233041648248    8.361628559056793    5.443848059858138
     19300     3.555549661152157   -11977.39429696338   -3476.832161996609    9.977233041648248    8.361628559056793    5.443848059858138
     19400     3.937383649133386   -11977.46373827212   -3887.185016807551    9.977233041648248    8.361628559056793    5.443848059858138
     19500     4.332493753285987   -11977.53559242233   -4318.049248986436    9.977233041648248    8.361628559056793    5.443848059858138
     19600     4.739624850211767   -11977.60963112095   -4769.056205336756    9.977233041648248    8.361628559056793    5.443848059858138
     19700     5.157465017981801   -11977.68561592397   -5240.545952476855    9.977233041648248    8.361628559056793    5.443848059858138
     19800     5.584636787328916   -11977.76329610819   -5732.570570709747    9.977233041648248    8.361628559056793    5.443848059858138
     19900     6.019678980266908   -11977.84240608825   -6244.926658202356    9.977233041648248    8.361628559056793    5.443848059858138
     20000      6.46104745342087   -11977.92266484976   -6777.899041295275    9.977233041648248    8.361628559056793    5.443848059858138
     20100     6.907132874864421   -11978.00377978782   -7332.220520322121    9.977233041648248    8.361628559056793    5.443848059858138
     20200     7.356264709735191   -11978.08544722027   -7908.441233562049    9.977233041648248    8.361628559056793    5.443848059858138
     20300     7.806689107599603   -11978.16734784238   -8507.071409784892    9.977233041648248    8.361628559056793    5.443848059858138
     20400     8.256546751079442   -11978.24914378491   -9129.179650580014    9.977233041648248    8.361628559056793    5.443848059858138
     20500     8.703878338517155    -11978.3304787586   -9775.917732367167    9.977233041648248    8.361628559056793    5.443848059858138
     20600     9.146648116189274   -11978.41098209422   -10447.24308424466    9.977233041648248    8.361628559056793    5.443848059858138
     20700     9.582757589516483   -11978.49027272013   -11141.64073916297    9.977233041648248    8.361628559056793    5.443848059858138
     20800     10.01004606435177    -11978.5679572925   -11857.00288538295    9.977233041648248    8.361628559056793    5.443848059858138
     20900     10.42629887352401   -11978.64363324483   -12591.03465731011    9.977233041648248    8.361628559056793    5.443848059858138
     21000     10.82927025408459   -11978.71689218712   -13340.83317667696    9.977233041648248    8.361628559056793    5.443848059858138
     21100      11.2166993606647   -11978.78732299829    -14103.0362178237    9.977233041648248    8.361628559056793    5.443848059858138
     21200     11.58630528244149   -11978.85451088082   -14874.85784316741    9.977233041648248    8.361628559056793    5.443848059858138
     21300      11.9357822122217   -11978.91803683802    -15654.6042940852    9.977233041648248    8.361628559056793    5.443848059858138
     21400     12.26282634946081   -11978.97748151252   -16441.15764671112    9.977233041648248    8.361628559056793    5.443848059858138
     21500     12.56519325878872   -11979.03243734368   -17233.59547957061    9.977233041648248    8.361628559056793    5.443848059858138
     21600     12.84075325814955   -11979.08251699316   -18031.42885171364    9.977233041648248    8.361628559056793    5.443848059858138
     21700     13.08752418830544   -11979.12736018039   -18834.43041813416    9.977233041648248    8.361628559056793    5.443848059858138
     21800     13.30369408587714   -11979.16663765077    -19641.6724565584    9.977233041648248    8.361628559056793    5.443848059858138
     21900     13.48765484264111    -11979.2000571239   -20450.84611703991    9.977233041648248    8.361628559056793    5.443848059858138
     22000      13.6380472060795   -11979.22737190328   -21258.37626211821    9.977233041648248    8.361628559056793    5.443848059858138
     22100     13.75380035502674   -11979.24838728257   -22059.53327735304    9.977233041648248    8.361628559056793    5.443848059858138
     22200     13.83415894937975   -11979.26296644493   -22848.32450963337    9.977233041648248    8.361628559056793    5.443848059858138
     22300     13.87870789119929   -11979.27103406045   -23618.11777881288    9.977233041648248    8.361628559056793    5.443848059858138
     22400  5.489497608021373e-05   -11979.27281898757   -24195.87768786588    9.977233041648248    8.361628559056793    5.443848059858138
     22500  0.004473355230797692    -11979.2737504249   -24168.56895477164    9.977233041648248    8.361628559056793    5.443848059858138
     22600   0.01755974768611204   -11979.27627004216   -24115.84729357249    9.977233041648248    8.361628559056793    5.443848059858138
     22700   0.03994008138950272   -11979.28043196484   -24056.48056603128    9.977233041648248    8.361628559056793    5.443848059858138
     22800   0.07148086879908273   -11979.28622244251   -23994.59244288838    9.977233041648248    8.361628559056793    5.443848059858138
     22900    0.1118378450779632   -11979.29359391786   -23926.86264049257    9.977233041648248    8.361628559056793    5.443848059858138
     23000     0.160570843112782   -11979.30247664785   -23848.89831240997    9.977233041648248    8.361628559056793    5.443848059858138
     23100    0.2171712321235865   -11979.31278293095   -23757.62148114541    9.977233041648248    8.361628559056793    5.443848059858138
     23200    0.2810704327364997   -11979.32441250643   -23651.13656930614    9.977233041648248    8.361628559056793    5.443848059858138
     23300    0.3516440590874348   -11979.33725311284   -23528.56697989442    9.977233041648248    8.361628559056793    5.443848059858138
     23400    0.4282181794176365   -11979.35118299925   -23390.18651585599    9.977233041648248    8.361628559056793    5.443848059858138
     23500    0.5100796922763149   -11979.36607302565   -23237.40545306044    9.977233041648248    8.361628559056793    5.443848059858138
     23600    0.5964906212852622   -11979.38178915645   -23072.36978412669    9.977233041648248    8.361628559056793    5.443848059858138
     23700    0.6867036870969744    -11979.3981959469   -22897.35577590892    9.977233041648248    8.361628559056793    5.443848059858138
     23800    0.7799746770022471   -11979.41515796558     -22714.266130151    9.977233041648248    8.361628559056793    5.443848059858138
     23900    0.8755689013159798   -11979.43254158276   -22524.33451466852    9.977233041648248    8.361628559056793    5.443848059858138
     24000    0.9727637027550948   -11979.45021566215   -22328.02876216536    9.977233041648248    8.361628559056793    5.443848059858138
     24100     1.070851707590548   -11979.46805148807    -22125.2058749581    9.977233041648248    8.361628559056793    5.443848059858138
     24200     1.169147346624228   -11979.48592433275    -21915.4957282062    9.977233041648248    8.361628559056793    5.443848059858138
     24300     1.266994646414454   -11979.50371523219   -21698.65971387962    9.977233041648248    8.361628559056793    5.443848059858138
     24400     1.363771954484894   -11979.52131097306    -21474.6951823924    9.977233041648248    8.361628559056793    5.443848059858138
     24500     1.458891219133371   -11979.53860465984   -21243.79371561484    9.977233041648248    8.361628559056793    5.443848059858138
     24600      1.55179441165784    -11979.5554949295   -21006.40961544809    9.977233041648248    8.361628559056793    5.443848059858138
     24700     1.641952814304765   -11979.57188566117   -20763.43169933643    9.977233041648248    8.361628559056793    5.443848059858138
     24800     1.728871993997919    -11979.5876869775   -20516.22539664239    9.977233041648248    8.361628559056793    5.443848059858138
     24900     1.812099279529541   -11979.60281657237   -20266.46738178936    9.977233041648248    8.361628559056793    5.443848059858138
     25000     1.891228937696897   -11979.61720079466   -20015.92366778895    9.977233041648248    8.361628559056793    5.443848059858138
     25100     1.965904529545765   -11979.63077484174   -19766.27720146289    9.977233041648248    8.361628559056793    5.443848059858138
     25200     2.035820938148155   -11979.64348322272   -19518.98560237185    9.977233041648248    8.361628559056793    5.443848059858138
     25300     2.100725691305953    -11979.6552801458   -19275.20427855196    9.977233041648248    8.361628559056793    5.443848059858138
     25400     2.160417030699517   -11979.66612887237   -19035.85528947594    9.977233041648248    8.361628559056793    5.443848059858138
     25500     2.214741059577114   -11979.67600173187   -18801.75570975846    9.977233041648248    8.361628559056793    5.443848059858138
     25600     2.263594635612046   -11979.68487975135   -18573.60117225217    9.977233041648248    8.361628559056793    5.443848059858138
     25700     2.306934652609539   -11979.69275525678   -18351.78688199685    9.977233041648248    8.361628559056793    5.443848059858138
     25800     2.344785054760652   -11979.69963252736   -18136.27555701241    9.977233041648248    8.361628559056793    5.443848059858138
     25900     2.377234023406651   -11979.70552792821   -17926.65412070665    9.977233041648248    8.361628559056793    5.443848059858138
     26000     2.404423607658646   -11979.71046708069   -17722.32715227468    9.977233041648248    8.361628559056793    5.443848059858138
     26100     2.426540222329473   -11979.71448404582   -17522.77212632646    9.977233041648248    8.361628559056793    5.443848059858138
     26200     2.443811924972914   -11979.71762026978   -17327.81108540746    9.977233041648248    8.361628559056793    5.443848059858138
     26300       2.4565117867401   -11979.71992541413   -17137.75122660742    9.977233041648248    8.361628559056793    5.443848059858138
     26400     2.464961262667819   -11979.72145809591   -16953.24542726733    9.977233041648248    8.361628559056793    5.443848059858138
     26500     2.469527213493892   -11979.72228490223    -16775.0149129213    9.977233041648248    8.361628559056793    5.443848059858138
     26600  5.841227785913208e-06   -11979.72248906181   -16637.43752056551    9.977233041648248    8.361628559056793    5.443848059858138
     26700  0.001049446706258137   -11979.72271139285   -16638.82041760777    9.977233041648248    8.361628559056793    5.443848059858138
     26800  0.004514222511916968   -11979.72338174338   -16644.82184960354    9.977233041648248    8.361628559056793    5.443848059858138
     26900   0.01064456622580888    -11979.7245232734   -16657.01313908962    9.977233041648248    8.361628559056793    5.443848059858138
     27000   0.01942149473474065   -11979.72613460137   -16675.35173626378    9.977233041648248    8.361628559056793    5.443848059858138
     27100   0.03074839886714667   -11979.72820336343   -16699.39372697601    9.977233041648248    8.361628559056793    5.443848059858138
     27200   0.04450396235431259   -11979.73071039488   -16728.77040120777    9.977233041648248    8.361628559056793    5.443848059858138
     27300   0.06055254081110369   -11979.73363271557   -16763.34784047689    9.977233041648248    8.361628559056793    5.443848059858138
     27400   0.07874515808385293   -11979.73694394454   -16803.17700666486    9.977233041648248    8.361628559056793    5.443848059858138
     27497     0.098287946914832   -11979.74049985133   -16847.01601069369    9.977233041648248    8.361628559056793    5.443848059858138
Loop time of 60.2678 on 1 procs for 10000 steps with 62 atoms

99.9% CPU use with 1 MPI tasks x no OpenMP threads

Minimization stats:
  Stopping criterion = max iterations
  Energy initial, next-to-last, final = 
     -11976.7464858617  -11979.7404615455  -11979.7404998513
  Force two-norm initial, final = 11.728822 3.4470491
  Force max component initial, final = 3.0976421 0.8439971
  Final line search alpha, max atom move = 0 0
  Iterations, force evaluations = 10000 10003

MPI task timing breakdown:
Section |  min time  |  avg time  |  max time  |%varavg| %total
---------------------------------------------------------------
Pair    | 54.253     | 54.253     | 54.253     |   0.0 | 90.02
Neigh   | 0          | 0          | 0          |   0.0 |  0.00
Comm    | 0.080357   | 0.080357   | 0.080357   |   0.0 |  0.13
Output  | 0.071344   | 0.071344   | 0.071344   |   0.0 |  0.12
Modify  | 5.802      | 5.802      | 5.802      |   0.0 |  9.63
Other   |            | 0.061      |            |       |  0.10

Nlocal:             62 ave          62 max          62 min
Histogram: 1 0 0 0 0 0 0 0 0 0
Nghost:            887 ave         887 max         887 min
Histogram: 1 0 0 0 0 0 0 0 0 0
Neighs:          18206 ave       18206 max       18206 min
Histogram: 1 0 0 0 0 0 0 0 0 0

Total # of neighbors = 18206
Ave neighs/atom = 293.64516
Neighbor list builds = 0
Dangerous builds = 0

next nr
jump ${simname}.in loopmin
jump ReaxFF.in loopmin

# Minimize the with cg + box/relax
  fix             frb all box/relax tri 0.0 couple none
  min_style       cg
  min_modify      line quadratic
  minimize        0.0 2.306e-2 10000 10000
WARNING: Energy due to 6 extra global DOFs will be included in minimizer energies
 (src/min.cpp:225)
Per MPI rank memory allocation (min/avg/max) = 21.22 | 21.22 | 21.22 Mbytes
   Step          Temp          PotEng         Press            Lx             Ly             Xy      
     27497     0.098287946914832    -11979.7404998913   -16847.01601022432    9.977233041648248    8.361628559056793    5.443848059858138
     27500     0.098287946914832   -11980.20293684836    342.4734239457189    9.974663422481402    8.359242860863587    5.444085439570917
     27600     0.098287946914832   -11980.96792411958    94.42095427187675    9.974907741546046    8.353687157973898    5.451766970032464
     27700     0.098287946914832   -11981.37671048354   -567.2235635694601     9.97286639824949    8.352050443600016    5.450472149696392
     27800     0.098287946914832   -11981.75129318703    1326.873139356922    9.970711924853607    8.350186907031079    5.449526715168526
     27900     0.098287946914832   -11982.07188635868    1307.411431029756    9.969231748003159    8.349050100906961    5.449460275194877
     28000     0.098287946914832   -11982.35472339258   -93.30994586618377    9.968260429178528    8.348446066371453     5.44967347454704
     28100     0.098287946914832   -11982.63891419286    207.8481338062819    9.967937713607986    8.347056858479508    5.449292249508622
     28200     0.098287946914832   -11982.92201850987   -1214.764610153476    9.967312575476184    8.346448807627183    5.449716266898067
     28300     0.098287946914832   -11983.21982282159     271.422036834423    9.966640389142015    8.345157162609453    5.449662430207833
     28400     0.098287946914832   -11983.51221577632   -835.6038459505858    9.966162963481912    8.344380110844162    5.449950726232262
     28500     0.098287946914832   -11983.80787078943   -126.2388737479969    9.965611590539046    8.343209330702491    5.449801405143794
     28600     0.098287946914832   -11984.12107157071     1424.80295353433    9.965009319870449    8.341762904062218    5.449758822318945
     28700     0.098287946914832   -11984.43927931596    813.2977224190691    9.964532886442823    8.340732110408501    5.449841000527112
     28800     0.098287946914832   -11984.76368565301    558.2883761322714    9.964098650570218    8.339522542706822    5.449840997086543
     28900     0.098287946914832   -11985.10904311292    1402.121246917862    9.961883746265459    8.339421436301732    5.452163265735414
     29000     0.098287946914832   -11985.45452656054    793.2045730312385    9.960374527251371    8.339050838063438    5.452814536294502
     29100     0.098287946914832    -11985.7800591197   -105.2314944294371    9.961947268490372    8.336266446957703     5.45105980640164
     29200     0.098287946914832   -11986.12645404909    574.9657287862982    9.959842898309185    8.336050040544722    5.453066747198528
     29300     0.098287946914832   -11986.47717211592    63.76116394912443    9.960398299244851    8.333818898101732    5.451447450712126
     29400     0.098287946914832   -11986.79550248879     -44.598204203534    9.958732918196215    8.333545078612374    5.453284140549213
     29500     0.098287946914832   -11987.16500250596   -52.86122665950542    9.957872969862892    8.332245099973886     5.45374126696864
     29600     0.098287946914832   -11987.52180253465   -158.8447414707034    9.957326262160107     8.33074674902247     5.45365979158611
     29700     0.098287946914832   -11987.89745900379   -1221.599420406826    9.955003815952027    8.330793461481793    5.457367297416702
     29800     0.098287946914832   -11988.42727625437    986.6033851556041    9.954689694912124    8.327521424509698    5.455236149852971
     29900     0.098287946914832   -11988.79222749662    247.1286555492045    9.953648517835878    8.326462821199891    5.456066413966966
     30000     0.098287946914832   -11989.16217505665   -832.8417387328815    9.953209265499609    8.324914360054361    5.456032672654079
     30100     0.098287946914832   -11989.52472332195    -1469.30779227911    9.952463468578271    8.323519563465251    5.456467175778371
     30200     0.098287946914832   -11989.93933338767   -79.86705917440904    9.951159520621953    8.321765234865701     5.45724598663683
     30300   0.09828794691483198   -11990.30495308245   -962.7147153076024    9.950440796578034    8.320327459541634    5.457517875935242
     30400   0.09828794691483198    -11990.6952105675    919.2489706691188    9.948991092353427    8.318629073722221    5.458229986161196
     30500   0.09828794691483198   -11991.07474956092   -1038.337033288855    9.947917387896243    8.317587347385265      5.4612160307735
     30600   0.09828794691483198   -11991.44896550634    1111.143861870785    9.947395749640755    8.315088256818187    5.459221936093433
     30700   0.09828794691483198   -11991.77301506952   -29.73356550488531    9.946303434120562    8.314182397698303     5.45923548117528
     30800   0.09828794691483198   -11992.10832957579    7.198763202544761    9.945357061354912    8.312744715709751    5.459873664396264
     30900   0.09828794691483198    -11992.4740967805   -15.00995307238757    9.944251866267484    8.311219450636596    5.461120388296747
     31000   0.09828794691483198   -11992.82412006558    1109.928930102697    9.943154831040603    8.309449286532512    5.461113226327399
     31100   0.09828794691483198   -11993.19466353952   0.1597268499153985    9.941994288806791    8.308135557645921    5.463907298923452
     31200   0.09828794691483198   -11993.56485331239    1162.536269692495    9.941463189393875    8.305665231251512    5.461898902894634
     31300   0.09828794691483198   -11994.04840105655   -1383.132836907546    9.939660622497605     8.30435183537602    5.463848538221317
     31400     0.098287946914832   -11994.43243510394    1280.054353166558    9.938285037585842    8.302014923550511    5.464633585912476
     31500     0.098287946914832   -11994.83571271922   -699.1129895101319    9.937472260963121    8.300134173317254    5.464040759911125
     31600     0.098287946914832   -11995.20006939404    49.13498677328736    9.935847409221612    8.298599254283539     5.46743140667177
     31700     0.098287946914832   -11995.58433356466    861.6420003172506    9.934806968923036    8.296294741197073    5.466526906165048
     31800     0.098287946914832   -11995.95390256296    -1168.60288990767    9.933717626882283    8.294747661336801    5.467389147409441
     31900     0.098287946914832   -11996.39248873912    705.7032749552365    9.932184961616381    8.292068315196937    5.468149323800853
     32000     0.098287946914832   -11996.80391619365   -565.6716862372836     9.93069216862229    8.290262135788296    5.470026945120843
     32100     0.098287946914832   -11997.17384160673    168.5118807239001    9.929483367689423    8.287935748977413    5.469701646526829
     32200     0.098287946914832    -11997.5378840835    405.4990823876341    9.927740438078647    8.286202499775101    5.471461503286306
     32300     0.098287946914832   -11997.88422284595    1442.014205762095    9.926763436708555    8.283685523192748    5.471487734287936
     32400     0.098287946914832   -11998.22080764042    188.9232459676193     9.92622340656122    8.281478574940911    5.471429650236676
     32500     0.098287946914832   -11998.54561262526     -31.282962197122    9.924503513273615    8.279993763401631    5.473217200384899
     32600     0.098287946914832   -11998.90658419983    428.2751161940848    9.922507120266564    8.278148620017189    5.475262687221136
     32700     0.098287946914832   -11999.25916358034   -1054.662949231289    9.922376721332354    8.275238302373783    5.475672475964005
     32800     0.098287946914832   -11999.54917870235    267.6914243914596    9.920527119440283    8.273617488552672    5.476038491581235
     32900     0.098287946914832   -11999.92444628557   -60.29218271530799    9.919136366363727    8.271020181630004     5.47579986447513
     33000     0.098287946914832   -12000.23408473986    9.436619873160176    9.917918983008278    8.268892686865486    5.477829390136985
     33100     0.098287946914832    -12000.5317992934   -28.77800990326225    9.916827621106254    8.266645852028404    5.477702108432689
     33200     0.098287946914832     -12000.838735451    326.3278162048965    9.915236207355273    8.264547250604849    5.479418633063704
     33300     0.098287946914832   -12001.10436625481    338.9727080843921    9.915172043188718    8.261671529313604    5.480218885024775
     33400     0.098287946914832   -12001.41986140696   -48.09675123627448    9.912501175035695    8.260331528935641    5.482494295689496
     33500     0.098287946914832   -12001.64414831389   -429.2889259503777     9.91157639239495    8.258572414631733    5.482291131142699
     33600     0.098287946914832   -12001.93435297857    603.2179701867176    9.910168129469206    8.255995902620791     5.48363844246174
     33700     0.098287946914832   -12002.19700409394    100.6432012280481    9.908626001721174    8.254094690861914    5.484338232234292
     33800     0.098287946914832   -12002.44504324381    1359.561327916001    9.907033173673359    8.251823724422788    5.484526906740502
     33900     0.098287946914832   -12002.70180307067   -170.1276972689249    9.905870242712572    8.249932246834197    5.486680709684972
     34000     0.098287946914832   -12002.94978127033    261.4383924661574    9.904783278472497    8.247343225248541    5.487086950199134
     34100     0.098287946914832   -12003.18985471546   -13.01837434498712    9.903679058084792    8.244915958265919    5.486928934210937
     34116     0.098287946914832   -12003.23342576079   -72.17964048155599     9.90344162356778    8.244525979516682    5.487239351594626
Loop time of 60.4729 on 1 procs for 6619 steps with 62 atoms

99.9% CPU use with 1 MPI tasks x no OpenMP threads

Minimization stats:
  Stopping criterion = max force evaluations
  Energy initial, next-to-last, final = 
     -11979.7404998913  -12003.2271229464  -12003.2334257608
  Force two-norm initial, final = 2293.5951 17.5738
  Force max component initial, final = 1669.3477 9.467756
  Final line search alpha, max atom move = 3.2258053e-06 3.0541137e-05
  Iterations, force evaluations = 6619 10000

MPI task timing breakdown:
Section |  min time  |  avg time  |  max time  |%varavg| %total
---------------------------------------------------------------
Pair    | 54.025     | 54.025     | 54.025     |   0.0 | 89.34
Neigh   | 0.012023   | 0.012023   | 0.012023   |   0.0 |  0.02
Comm    | 0.076439   | 0.076439   | 0.076439   |   0.0 |  0.13
Output  | 0.044139   | 0.044139   | 0.044139   |   0.0 |  0.07
Modify  | 6.1616     | 6.1616     | 6.1616     |   0.0 | 10.19
Other   |            | 0.1534     |            |       |  0.25

Nlocal:             62 ave          62 max          62 min
Histogram: 1 0 0 0 0 0 0 0 0 0
Nghost:            891 ave         891 max         891 min
Histogram: 1 0 0 0 0 0 0 0 0 0
Neighs:          18376 ave       18376 max       18376 min
Histogram: 1 0 0 0 0 0 0 0 0 0

Total # of neighbors = 18376
Ave neighs/atom = 296.3871
Neighbor list builds = 6
Dangerous builds = 0

# Minimize the with fire
  unfix           frb
  min_style       fire
  minimize        0.0 2.306e-2 10000 10000
  Parameters for fire:
    dmax  delaystep dtgrow dtshrink alpha0 alphashrink tmax tmin   integrator   halfstepback   abcfire  
     0.1     20      1.1     0.5     0.25     0.99      10  0.02 eulerimplicit      yes          no     
Per MPI rank memory allocation (min/avg/max) = 20.1 | 20.1 | 20.1 Mbytes
   Step          Temp          PotEng         Press            Lx             Ly             Xy      
     34116                     0   -12003.23342573118   -72.35566405238488     9.90344162356778    8.244525979516682    5.487239351594626
     34200  0.002151146461267526   -12003.23389929386   -94.94147881938694     9.90344162356778    8.244525979516682    5.487239351594626
     34300   0.01883188914858676   -12003.23722899152   -247.9346928707544     9.90344162356778    8.244525979516682    5.487239351594626
     34400   0.05140503663717674   -12003.24337600369   -491.8950011346967     9.90344162356778    8.244525979516682    5.487239351594626
     34500   0.09881797301278496   -12003.25212205602   -821.9155106431512     9.90344162356778    8.244525979516682    5.487239351594626
     34600    0.1580723070214179   -12003.26298071129    -1223.56123698158     9.90344162356778    8.244525979516682    5.487239351594626
     34700    0.2257650516717834   -12003.27535974828   -1681.758762831052     9.90344162356778    8.244525979516682    5.487239351594626
     34800    0.2983215688766944   -12003.28861644604   -2185.456711854441     9.90344162356778    8.244525979516682    5.487239351594626
     34900    0.3721768552326751   -12003.30210202085   -2724.283310221767     9.90344162356778    8.244525979516682    5.487239351594626
     35000    0.4439896561646609   -12003.31520643075   -3288.557325031245     9.90344162356778    8.244525979516682    5.487239351594626
     35100    0.5108713659553975   -12003.32740303418   -3869.187537820102     9.90344162356778    8.244525979516682    5.487239351594626
     35200    0.5705975651144788   -12003.33828733457   -4457.343460461983     9.90344162356778    8.244525979516682    5.487239351594626
     35300    0.6217720625015997   -12003.34760596102   -5044.789351871449     9.90344162356778    8.244525979516682    5.487239351594626
     35400    0.6639038278972189    -12003.3552716042   -5624.202683812567     9.90344162356778    8.244525979516682    5.487239351594626
     35500    0.6974061348761376   -12003.36136279831   -6188.265410923736     9.90344162356778    8.244525979516682    5.487239351594626
     35600    0.7235059808226935   -12003.36610575728   -6728.223316614598     9.90344162356778    8.244525979516682    5.487239351594626
     35700    0.7440715415788094   -12003.36984248667   -7233.732399880217     9.90344162356778    8.244525979516682    5.487239351594626
     35800     0.761369078845308    -12003.3729863519   -7694.081582193759     9.90344162356778    8.244525979516682    5.487239351594626
     35900    0.7777790720040564   -12003.37597059483   -8099.302546824287     9.90344162356778    8.244525979516682    5.487239351594626
     36000    0.7955416755367779   -12003.37920264277   -8440.649913412746     9.90344162356778    8.244525979516682    5.487239351594626
     36100    0.8165525577219285   -12003.38302672961   -8711.038364487304     9.90344162356778    8.244525979516682    5.487239351594626
     36200    0.8422293667308178   -12003.38770025502   -8905.266171936033     9.90344162356778    8.244525979516682    5.487239351594626
     36300    0.8734419707089167   -12003.39338088959   -9019.441780207413     9.90344162356778    8.244525979516682    5.487239351594626
     36400    0.9104722052272534   -12003.40011927738    -9050.47254380602     9.90344162356778    8.244525979516682    5.487239351594626
     36500    0.9530029584755433   -12003.40785735718   -8996.941211161313     9.90344162356778    8.244525979516682    5.487239351594626
     36600     1.000144146519107   -12003.41643263015   -8860.535446886586     9.90344162356778    8.244525979516682    5.487239351594626
     36700     1.050515936104923   -12003.42559388149   -8646.006388303422     9.90344162356778    8.244525979516682    5.487239351594626
     36800     1.102405988641803   -12003.43502954165   -8359.903456550162     9.90344162356778    8.244525979516682    5.487239351594626
     36900      1.15399121553706   -12003.44440822129   -8010.317859805974     9.90344162356778    8.244525979516682    5.487239351594626
     37000     1.203580979704697   -12003.45342254443   -7607.930268510608     9.90344162356778    8.244525979516682    5.487239351594626
     37100     1.249829055168784   -12003.46182834905   -7166.063884809784     9.90344162356778    8.244525979516682    5.487239351594626
     37200     1.291872290657243   -12003.46946898509   -6698.828250066435     9.90344162356778    8.244525979516682    5.487239351594626
     37300     1.329388298839711   -12003.47628641806   -6219.494989267354     9.90344162356778    8.244525979516682    5.487239351594626
     37400     1.362602139112435   -12003.48232201398   -5740.711374501197     9.90344162356778    8.244525979516682    5.487239351594626
     37500      1.39224702508023   -12003.48770951673   -5275.083777162735     9.90344162356778    8.244525979516682    5.487239351594626
     37600     1.419492625948612   -12003.49266206247   -4834.363071354315     9.90344162356778    8.244525979516682    5.487239351594626
     37700     1.445846490644311   -12003.49745390426   -4428.045013562152     9.90344162356778    8.244525979516682    5.487239351594626
     37800     1.473027208531492   -12003.50239769729   -4062.994230331504     9.90344162356778    8.244525979516682    5.487239351594626
     37900     1.502809530068407   -12003.50781613758   -3743.840865609968     9.90344162356778    8.244525979516682    5.487239351594626
     38000     1.536838778723281    -12003.5140082109   -3473.150464425945     9.90344162356778    8.244525979516682    5.487239351594626
     38100     1.576448740864958   -12003.52121600391    -3251.71271761381     9.90344162356778    8.244525979516682    5.487239351594626
     38200     1.622491649839852   -12003.52959405567   -3079.609347994987     9.90344162356778    8.244525979516682    5.487239351594626
     38300      1.67521121452548   -12003.53918596766   -2957.370934326741     9.90344162356778    8.244525979516682    5.487239351594626
     38400     1.734194174773962   -12003.54991614582   -2886.323866578521     9.90344162356778    8.244525979516682    5.487239351594626
     38500     1.798387817181363   -12003.56159253408   -2868.537696317774     9.90344162356778    8.244525979516682    5.487239351594626
     38600      1.86619426612628   -12003.57392414979   -2906.871469705125     9.90344162356778    8.244525979516682    5.487239351594626
     38700     1.935621035280341   -12003.58654844375    -3004.32255523637     9.90344162356778    8.244525979516682    5.487239351594626
     38800     2.004451859779113   -12003.59906234718   -3162.158671679359     9.90344162356778    8.244525979516682    5.487239351594626
     38900     2.070412604746599   -12003.61105226485   -3378.139596254233     9.90344162356778    8.244525979516682    5.487239351594626
     39000       2.1313278037304   -12003.62212295977   -3646.196676022455     9.90344162356778    8.244525979516682    5.487239351594626
     39100     2.185282099100713   -12003.63192639367   -3956.993196598344     9.90344162356778    8.244525979516682    5.487239351594626
     39200     2.230787142500141   -12003.64019230043   -4298.265632683103     9.90344162356778    8.244525979516682    5.487239351594626
     39300     2.266929904657326   -12003.64675540455   -4655.332540176239     9.90344162356778    8.244525979516682    5.487239351594626
     39400     2.293467933516792   -12003.65157217304   -5012.452329806997     9.90344162356778    8.244525979516682    5.487239351594626
     39500     2.310848332978611    -12003.6547244991   -5354.280455297996     9.90344162356778    8.244525979516682    5.487239351594626
     39600     2.320138253646944   -12003.65640702074    -5666.61264649098     9.90344162356778    8.244525979516682    5.487239351594626
     39700     2.322890229980791    -12003.6569022738   -5937.194602164188     9.90344162356778    8.244525979516682    5.487239351594626
     39800  0.001699246009194534   -12003.65727245856   -5926.982035200613     9.90344162356778    8.244525979516682    5.487239351594626
     39900  0.008881799586585961    -12003.6586788094   -5867.115884735867     9.90344162356778    8.244525979516682    5.487239351594626
     40000   0.02193114851860664   -12003.66111971713   -5766.456829805126     9.90344162356778    8.244525979516682    5.487239351594626
     40100   0.04006121530700096   -12003.66445546454   -5631.694768993411     9.90344162356778    8.244525979516682    5.487239351594626
     40200    0.0620268321068772   -12003.66847547945   -5469.780640954714     9.90344162356778    8.244525979516682    5.487239351594626
     40300   0.08641468253055942   -12003.67293329069   -5286.801898330867     9.90344162356778    8.244525979516682    5.487239351594626
     40400    0.1117907962294125   -12003.67757140109   -5088.417452212957     9.90344162356778    8.244525979516682    5.487239351594626
     40500    0.1368038317520085   -12003.68214313007   -4880.269786386061     9.90344162356778    8.244525979516682    5.487239351594626
     40600    0.1602777930419042   -12003.68643281617   -4667.992594319318     9.90344162356778    8.244525979516682    5.487239351594626
     40700    0.1812974475759611   -12003.69027196685   -4457.015458776244     9.90344162356778    8.244525979516682    5.487239351594626
     40800    0.1992760132212492   -12003.69355278641   -4252.383459940049     9.90344162356778    8.244525979516682    5.487239351594626
     40900    0.2139935120995465   -12003.69623532564   -4058.690706585026     9.90344162356778    8.244525979516682    5.487239351594626
     41000    0.2256009624681167   -12003.69834833867   -3880.133552251898     9.90344162356778    8.244525979516682    5.487239351594626
     41100    0.2345894616025293   -12003.69998305999   -3720.634202011814     9.90344162356778    8.244525979516682    5.487239351594626
     41200    0.2417213206235515   -12003.70127961506   -3583.961136629297     9.90344162356778    8.244525979516682    5.487239351594626
     41300    0.2479272304579646   -12003.70240807953   -3473.788213002635     9.90344162356778    8.244525979516682    5.487239351594626
     41400    0.2541847850846483   -12003.70354650839   -3393.672473281896     9.90344162356778    8.244525979516682    5.487239351594626
     41500    0.2613975589603494   -12003.70485916433   -3346.949955435784     9.90344162356778    8.244525979516682    5.487239351594626
     41600    0.2702913636892605   -12003.70647822278   -3336.548185585801     9.90344162356778    8.244525979516682    5.487239351594626
     41700    0.2813387804894226   -12003.70848909188   -3364.731791980881     9.90344162356778    8.244525979516682    5.487239351594626
     41800      0.29471674520994   -12003.71092370916   -3432.829703269339     9.90344162356778    8.244525979516682    5.487239351594626
     41900    0.3102969108555671   -12003.71375846718   -3540.993133023485     9.90344162356778    8.244525979516682    5.487239351594626
     42000     0.327665975820266   -12003.71691807591    -3688.00451836148     9.90344162356778    8.244525979516682    5.487239351594626
     42100    0.3461727714551916   -12003.72028384477   -3871.151858878628     9.90344162356778    8.244525979516682    5.487239351594626
     42200    0.3649990323128307   -12003.72370683932   -4086.205171080438     9.90344162356778    8.244525979516682    5.487239351594626
     42300    0.3832496586722107   -12003.72702445963   -4327.526320150165     9.90344162356778    8.244525979516682    5.487239351594626
     42400    0.4000551237662762    -12003.7300784759   -4588.298334251785     9.90344162356778    8.244525979516682    5.487239351594626
     42500    0.4146744664072363   -12003.73273448879   -4860.833817540623     9.90344162356778    8.244525979516682    5.487239351594626
     42600    0.4265844593608412   -12003.73489740946   -5136.937868435043     9.90344162356778    8.244525979516682    5.487239351594626
     42700    0.4355413292805498   -12003.73652333164   -5408.307095173624     9.90344162356778    8.244525979516682    5.487239351594626
     42800    0.4416063145916216   -12003.73762360885   -5666.917991446871     9.90344162356778    8.244525979516682    5.487239351594626
     42900    0.4451335953143313   -12003.73826292215   -5905.347487052283     9.90344162356778    8.244525979516682    5.487239351594626
     43000    0.4467257381765512   -12003.73855098415   -6117.009197074127     9.90344162356778    8.244525979516682    5.487239351594626
     43100     0.447165466804273   -12003.73863022059    -6296.32825269603     9.90344162356778    8.244525979516682    5.487239351594626
     43200    0.4473328895660442   -12003.73866093603   -6438.866369654069     9.90344162356778    8.244525979516682    5.487239351594626
     43300    0.4481157846682544   -12003.73880418273   -6541.380925467648     9.90344162356778    8.244525979516682    5.487239351594626
     43400    0.4503193821170642   -12003.73920646157   -6601.806816760944     9.90344162356778    8.244525979516682    5.487239351594626
     43500    0.4545825987696434   -12003.73998369568   -6619.170651771094     9.90344162356778    8.244525979516682    5.487239351594626
     43600    0.4613092955521668   -12003.74120920866   -6593.447890570224     9.90344162356778    8.244525979516682    5.487239351594626
     43700    0.4706238594318901   -12003.74290519115   -6525.374201739968     9.90344162356778    8.244525979516682    5.487239351594626
     43800    0.4823585609041757   -12003.74504095348   -6416.249909800786     9.90344162356778    8.244525979516682    5.487239351594626
     43900    0.4960755948549107   -12003.74753665847   -6267.800628628255     9.90344162356778    8.244525979516682    5.487239351594626
     44000    0.5111208821303718   -12003.75027317104   -6082.136287181816     9.90344162356778    8.244525979516682    5.487239351594626
     44100    0.5267015592138123   -12003.75310620539   -5861.807093427451     9.90344162356778    8.244525979516682    5.487239351594626
     44116    0.5291877819734346   -12003.75355824636   -5823.536553203621     9.90344162356778    8.244525979516682    5.487239351594626
Loop time of 60.0969 on 1 procs for 10000 steps with 62 atoms

99.7% CPU use with 1 MPI tasks x no OpenMP threads

Minimization stats:
  Stopping criterion = max iterations
  Energy initial, next-to-last, final = 
     -12003.2334257312  -12003.7535300695  -12003.7535582464
  Force two-norm initial, final = 11.488536 3.9751777
  Force max component initial, final = 2.5283597 1.3862859
  Final line search alpha, max atom move = 0 0
  Iterations, force evaluations = 10000 10002

MPI task timing breakdown:
Section |  min time  |  avg time  |  max time  |%varavg| %total
---------------------------------------------------------------
Pair    | 53.963     | 53.963     | 53.963     |   0.0 | 89.79
Neigh   | 0          | 0          | 0          |   0.0 |  0.00
Comm    | 0.078578   | 0.078578   | 0.078578   |   0.0 |  0.13
Output  | 0.15013    | 0.15013    | 0.15013    |   0.0 |  0.25
Modify  | 5.8442     | 5.8442     | 5.8442     |   0.0 |  9.72
Other   |            | 0.06059    |            |       |  0.10

Nlocal:             62 ave          62 max          62 min
Histogram: 1 0 0 0 0 0 0 0 0 0
Nghost:            891 ave         891 max         891 min
Histogram: 1 0 0 0 0 0 0 0 0 0
Neighs:          18388 ave       18388 max       18388 min
Histogram: 1 0 0 0 0 0 0 0 0 0

Total # of neighbors = 18388
Ave neighs/atom = 296.58065
Neighbor list builds = 0
Dangerous builds = 0

next nr
jump ${simname}.in loopmin
jump ReaxFF.in loopmin

# Minimize the with cg + box/relax
  fix             frb all box/relax tri 0.0 couple none
  min_style       cg
  min_modify      line quadratic
  minimize        0.0 2.306e-2 10000 10000
WARNING: Energy due to 6 extra global DOFs will be included in minimizer energies
 (src/min.cpp:225)
Per MPI rank memory allocation (min/avg/max) = 21.23 | 21.23 | 21.23 Mbytes
   Step          Temp          PotEng         Press            Lx             Ly             Xy      
     44116    0.5291877819734346   -12003.75355830481   -5823.536552514392     9.90344162356778    8.244525979516682    5.487239351594626
     44200    0.5291877819734346   -12004.02023270255   -535.5016211471903    9.901164529718896    8.239625684569841    5.491255713520873
     44300    0.5291877819734346   -12004.26534707953    -886.556311275927    9.897576778197262    8.234369809516538     5.49350869233325
     44400    0.5291877819734346   -12004.44489016466   -467.7907997889678    9.894855074017231    8.233011251269765     5.49366640807475
     44500    0.5291877819734346   -12004.61675216981   -17.86146643410644    9.894770891783541    8.230019642464482     5.49416655559894
     44600    0.5291877819734346   -12004.75920248073    -52.0953436032793    9.893947182922414    8.227785790126653    5.494101741606391
     44700    0.5291877819734346    -12004.9318885089   -870.5631628313532    9.892386525717072    8.225684173934624    5.496235199324795
     44800    0.5291877819734346   -12005.07968286244   -103.1810335781111    9.891331136499556    8.223139352867287    5.496366464754305
     44900    0.5291877819734346   -12005.21287000241     110.210883287613    9.889255382217851     8.22178283883922    5.498504173346403
     45000    0.5291877819734346   -12005.33249697499    97.95577574861119    9.888680348224364    8.219445532636753    5.498148404261224
     45100    0.5291877819734346   -12005.44285670147    97.73574563332458    9.887693107904587    8.217547056657754    5.498812465866768
     45200    0.5291877819734346   -12005.54825503855   -931.8229839120556    9.886274480598489    8.216231715399589    5.499849671953258
     45300    0.5291877819734346   -12005.64815098476    207.5382168452317    9.884810856507929    8.214489757365859    5.501499097197064
     45400    0.5291877819734346     -12005.736562693    7.809426171810003    9.884140757292236    8.212610176487777    5.501229039563285
     45500    0.5291877819734346    -12005.8182597272    6.990533743117189    9.883307631235528    8.210920537367894    5.501775686523048
     45600    0.5291877819734346   -12005.89514426241    253.9745717626877    9.882057675823468    8.209503665088205    5.503579351737869
     45700    0.5291877819734346   -12005.97365951539     -89.511317079021    9.881058975694136    8.207859109914628    5.503818798458686
     45800    0.5291877819734346   -12006.04854183247   -436.9789013924279    9.880337806778387    8.205940023575954    5.504455497453636
     45900    0.5291877819734346   -12006.11393170055    362.4734751629291    9.879123276302556    8.204342913160273     5.50492422610685
     46000    0.5291877819734346   -12006.17287591358    131.2095347823336    9.877901109110123    8.203047940400078     5.50581873824701
[...]
Other   |            | 0.002336   |            |       | 17.08

Nlocal:             62 ave          62 max          62 min
Histogram: 1 0 0 0 0 0 0 0 0 0
Nghost:            907 ave         907 max         907 min
Histogram: 1 0 0 0 0 0 0 0 0 0
Neighs:          18592 ave       18592 max       18592 min
Histogram: 1 0 0 0 0 0 0 0 0 0

Total # of neighbors = 18592
Ave neighs/atom = 299.87097
Neighbor list builds = 0
Dangerous builds = 0

next nr
jump ${simname}.in loopmin
jump ReaxFF.in loopmin

# Minimize the with cg + box/relax
  fix             frb all box/relax tri 0.0 couple none
  min_style       cg
  min_modify      line quadratic
  minimize        0.0 2.306e-2 10000 10000
WARNING: Energy due to 6 extra global DOFs will be included in minimizer energies
 (src/min.cpp:225)
Per MPI rank memory allocation (min/avg/max) = 21.23 | 21.23 | 21.23 Mbytes
   Step          Temp          PotEng         Press            Lx             Ly             Xy      
    130214  3.690166601251363e-15   -12006.58166776307  -0.1111946126054045    9.865174714228711    8.181122435337869     5.51279996244365
    130215  3.690166601251363e-15   -12006.58166770931  0.02674712366437667    9.865174695996556    8.181122413641265    5.512799954443967
Loop time of 0.0129537 on 1 procs for 1 steps with 62 atoms

91.3% CPU use with 1 MPI tasks x no OpenMP threads

Minimization stats:
  Stopping criterion = force tolerance
  Energy initial, next-to-last, final = 
     -12006.5816677631  -12006.5816677631  -12006.5816677093
  Force two-norm initial, final = 0.017469672 0.0088047702
  Force max component initial, final = 0.012858364 0.0046295784
  Final line search alpha, max atom move = 0.0077770394 3.6004414e-05
  Iterations, force evaluations = 1 2

MPI task timing breakdown:
Section |  min time  |  avg time  |  max time  |%varavg| %total
---------------------------------------------------------------
Pair    | 0.010351   | 0.010351   | 0.010351   |   0.0 | 79.91
Neigh   | 0          | 0          | 0          |   0.0 |  0.00
Comm    | 1.9747e-05 | 1.9747e-05 | 1.9747e-05 |   0.0 |  0.15
Output  | 0          | 0          | 0          |   0.0 |  0.00
Modify  | 0.0012752  | 0.0012752  | 0.0012752  |   0.0 |  9.84
Other   |            | 0.001308   |            |       | 10.10

Nlocal:             62 ave          62 max          62 min
Histogram: 1 0 0 0 0 0 0 0 0 0
Nghost:            907 ave         907 max         907 min
Histogram: 1 0 0 0 0 0 0 0 0 0
Neighs:          18592 ave       18592 max       18592 min
Histogram: 1 0 0 0 0 0 0 0 0 0

Total # of neighbors = 18592
Ave neighs/atom = 299.87097
Neighbor list builds = 0
Dangerous builds = 0

# Minimize the with fire
  unfix           frb
  min_style       fire
  minimize        0.0 2.306e-2 10000 10000
  Parameters for fire:
    dmax  delaystep dtgrow dtshrink alpha0 alphashrink tmax tmin   integrator   halfstepback   abcfire  
     0.1     20      1.1     0.5     0.25     0.99      10  0.02 eulerimplicit      yes          no     
Per MPI rank memory allocation (min/avg/max) = 20.11 | 20.11 | 20.11 Mbytes
   Step          Temp          PotEng         Press            Lx             Ly             Xy      
    130215                     0   -12006.58166780476  0.02674844043521371    9.865174695996556    8.181122413641265    5.512799954443967
    130216  3.569176306791045e-15   -12006.58166776681  0.02674817126675249    9.865174695996556    8.181122413641265    5.512799954443967
Loop time of 0.0116203 on 1 procs for 1 steps with 62 atoms

96.2% CPU use with 1 MPI tasks x no OpenMP threads

Minimization stats:
  Stopping criterion = force tolerance
  Energy initial, next-to-last, final = 
     -12006.5816678048  -12006.5816678048  -12006.5816677668
  Force two-norm initial, final = 0.006104144 0.0061041435
  Force max component initial, final = 0.0011885698 0.0011885697
  Final line search alpha, max atom move = 0 0
  Iterations, force evaluations = 1 2

MPI task timing breakdown:
Section |  min time  |  avg time  |  max time  |%varavg| %total
---------------------------------------------------------------
Pair    | 0.0098691  | 0.0098691  | 0.0098691  |   0.0 | 84.93
Neigh   | 0          | 0          | 0          |   0.0 |  0.00
Comm    | 1.7332e-05 | 1.7332e-05 | 1.7332e-05 |   0.0 |  0.15
Output  | 0          | 0          | 0          |   0.0 |  0.00
Modify  | 0.0010544  | 0.0010544  | 0.0010544  |   0.0 |  9.07
Other   |            | 0.0006795  |            |       |  5.85

Nlocal:             62 ave          62 max          62 min
Histogram: 1 0 0 0 0 0 0 0 0 0
Nghost:            907 ave         907 max         907 min
Histogram: 1 0 0 0 0 0 0 0 0 0
Neighs:          18592 ave       18592 max       18592 min
Histogram: 1 0 0 0 0 0 0 0 0 0

Total # of neighbors = 18592
Ave neighs/atom = 299.87097
Neighbor list builds = 0
Dangerous builds = 0

next nr
jump ${simname}.in loopmin
jump ReaxFF.in loopmin

# Minimize the with cg + box/relax
  fix             frb all box/relax tri 0.0 couple none
  min_style       cg
  min_modify      line quadratic
  minimize        0.0 2.306e-2 10000 10000
WARNING: Energy due to 6 extra global DOFs will be included in minimizer energies
 (src/min.cpp:225)
Per MPI rank memory allocation (min/avg/max) = 21.23 | 21.23 | 21.23 Mbytes
   Step          Temp          PotEng         Press            Lx             Ly             Xy      
    130216  3.569176306791045e-15   -12006.58166781684  0.02674870107932397    9.865174695996556    8.181122413641265    5.512799954443967
    130217  3.569176306791045e-15   -12006.58166778274  0.02674854125341264    9.865174695996556    8.181122413641265    5.512799954443967
Loop time of 0.050262 on 1 procs for 1 steps with 62 atoms

99.1% CPU use with 1 MPI tasks x no OpenMP threads

Minimization stats:
  Stopping criterion = linesearch alpha is zero
  Energy initial, next-to-last, final = 
     -12006.5816678168  -12006.5816678168  -12006.5816677827
  Force two-norm initial, final = 0.0088048581 0.0088048499
  Force max component initial, final = 0.0046297335 0.0046297142
  Final line search alpha, max atom move = 8.4373106e-05 3.9062337e-07
  Iterations, force evaluations = 1 13

MPI task timing breakdown:
Section |  min time  |  avg time  |  max time  |%varavg| %total
---------------------------------------------------------------
Pair    | 0.04435    | 0.04435    | 0.04435    |   0.0 | 88.24
Neigh   | 0          | 0          | 0          |   0.0 |  0.00
Comm    | 5.7727e-05 | 5.7727e-05 | 5.7727e-05 |   0.0 |  0.11
Output  | 0          | 0          | 0          |   0.0 |  0.00
Modify  | 0.0051479  | 0.0051479  | 0.0051479  |   0.0 | 10.24
Other   |            | 0.0007064  |            |       |  1.41

Nlocal:             62 ave          62 max          62 min
Histogram: 1 0 0 0 0 0 0 0 0 0
Nghost:            907 ave         907 max         907 min
Histogram: 1 0 0 0 0 0 0 0 0 0
Neighs:          18592 ave       18592 max       18592 min
Histogram: 1 0 0 0 0 0 0 0 0 0

Total # of neighbors = 18592
Ave neighs/atom = 299.87097
Neighbor list builds = 0
Dangerous builds = 0

# Minimize the with fire
  unfix           frb
  min_style       fire
  minimize        0.0 2.306e-2 10000 10000
  Parameters for fire:
    dmax  delaystep dtgrow dtshrink alpha0 alphashrink tmax tmin   integrator   halfstepback   abcfire  
     0.1     20      1.1     0.5     0.25     0.99      10  0.02 eulerimplicit      yes          no     
Per MPI rank memory allocation (min/avg/max) = 20.11 | 20.11 | 20.11 Mbytes
   Step          Temp          PotEng         Press            Lx             Ly             Xy      
    130217                     0   -12006.58166779228  0.02674829577931232    9.865174695996556    8.181122413641265    5.512799954443967
    130218  3.569171882857931e-15   -12006.58166777342  0.02674807153955679    9.865174695996556    8.181122413641265    5.512799954443967
Loop time of 0.0119936 on 1 procs for 1 steps with 62 atoms

93.0% CPU use with 1 MPI tasks x no OpenMP threads

Minimization stats:
  Stopping criterion = force tolerance
  Energy initial, next-to-last, final = 
     -12006.5816677923  -12006.5816677923  -12006.5816677734
  Force two-norm initial, final = 0.0061041421 0.0061041414
  Force max component initial, final = 0.0011885697 0.0011885686
  Final line search alpha, max atom move = 0 0
  Iterations, force evaluations = 1 2

MPI task timing breakdown:
Section |  min time  |  avg time  |  max time  |%varavg| %total
---------------------------------------------------------------
Pair    | 0.0098406  | 0.0098406  | 0.0098406  |   0.0 | 82.05
Neigh   | 0          | 0          | 0          |   0.0 |  0.00
Comm    | 1.7456e-05 | 1.7456e-05 | 1.7456e-05 |   0.0 |  0.15
Output  | 0          | 0          | 0          |   0.0 |  0.00
Modify  | 0.0011623  | 0.0011623  | 0.0011623  |   0.0 |  9.69
Other   |            | 0.0009733  |            |       |  8.12

Nlocal:             62 ave          62 max          62 min
Histogram: 1 0 0 0 0 0 0 0 0 0
Nghost:            907 ave         907 max         907 min
Histogram: 1 0 0 0 0 0 0 0 0 0
Neighs:          18592 ave       18592 max       18592 min
Histogram: 1 0 0 0 0 0 0 0 0 0

Total # of neighbors = 18592
Ave neighs/atom = 299.87097
Neighbor list builds = 0
Dangerous builds = 0

next nr
jump ${simname}.in loopmin
jump ReaxFF.in loopmin

# Minimize the with cg + box/relax
  fix             frb all box/relax tri 0.0 couple none
  min_style       cg
  min_modify      line quadratic
  minimize        0.0 2.306e-2 10000 10000
WARNING: Energy due to 6 extra global DOFs will be included in minimizer energies
 (src/min.cpp:225)
Per MPI rank memory allocation (min/avg/max) = 21.23 | 21.23 | 21.23 Mbytes
   Step          Temp          PotEng         Press            Lx             Ly             Xy      
    130218  3.569171882857931e-15   -12006.58166779694  0.02674834954218315    9.865174695996556    8.181122413641265    5.512799954443967
    130219  3.569171882857931e-15   -12006.58166779982  0.02674837954292291    9.865174695996556    8.181122413641265    5.512799954443967
Loop time of 0.051393 on 1 procs for 1 steps with 62 atoms

97.3% CPU use with 1 MPI tasks x no OpenMP threads

Minimization stats:
  Stopping criterion = linesearch alpha is zero
  Energy initial, next-to-last, final = 
     -12006.5816677969  -12006.5816677969  -12006.5816677998
  Force two-norm initial, final = 0.0088048379 0.008804839
  Force max component initial, final = 0.0046296943 0.004629699
  Final line search alpha, max atom move = 8.4373821e-05 3.9062539e-07
  Iterations, force evaluations = 1 13

MPI task timing breakdown:
Section |  min time  |  avg time  |  max time  |%varavg| %total
---------------------------------------------------------------
Pair    | 0.044517   | 0.044517   | 0.044517   |   0.0 | 86.62
Neigh   | 0          | 0          | 0          |   0.0 |  0.00
Comm    | 6.0648e-05 | 6.0648e-05 | 6.0648e-05 |   0.0 |  0.12
Output  | 0          | 0          | 0          |   0.0 |  0.00
Modify  | 0.0051952  | 0.0051952  | 0.0051952  |   0.0 | 10.11
Other   |            | 0.00162    |            |       |  3.15

Nlocal:             62 ave          62 max          62 min
Histogram: 1 0 0 0 0 0 0 0 0 0
Nghost:            907 ave         907 max         907 min
Histogram: 1 0 0 0 0 0 0 0 0 0
Neighs:          18592 ave       18592 max       18592 min
Histogram: 1 0 0 0 0 0 0 0 0 0

Total # of neighbors = 18592
Ave neighs/atom = 299.87097
Neighbor list builds = 0
Dangerous builds = 0

# Minimize the with fire
  unfix           frb
  min_style       fire
  minimize        0.0 2.306e-2 10000 10000
  Parameters for fire:
    dmax  delaystep dtgrow dtshrink alpha0 alphashrink tmax tmin   integrator   halfstepback   abcfire  
     0.1     20      1.1     0.5     0.25     0.99      10  0.02 eulerimplicit      yes          no     
Per MPI rank memory allocation (min/avg/max) = 20.11 | 20.11 | 20.11 Mbytes
   Step          Temp          PotEng         Press            Lx             Ly             Xy      
    130219                     0   -12006.58166767538  0.02674643197102134    9.865174695996556    8.181122413641265    5.512799954443967
    130220  3.569170922915894e-15   -12006.58166777604  0.02674808668687156    9.865174695996556    8.181122413641265    5.512799954443967
Loop time of 0.0116445 on 1 procs for 1 steps with 62 atoms

97.3% CPU use with 1 MPI tasks x no OpenMP threads

Minimization stats:
  Stopping criterion = force tolerance
  Energy initial, next-to-last, final = 
     -12006.5816676754  -12006.5816676754   -12006.581667776
  Force two-norm initial, final = 0.0061041413 0.0061041376
  Force max component initial, final = 0.0011885694 0.0011885657
  Final line search alpha, max atom move = 0 0
  Iterations, force evaluations = 1 2

MPI task timing breakdown:
Section |  min time  |  avg time  |  max time  |%varavg| %total
---------------------------------------------------------------
Pair    | 0.0099863  | 0.0099863  | 0.0099863  |   0.0 | 85.76
Neigh   | 0          | 0          | 0          |   0.0 |  0.00
Comm    | 1.3139e-05 | 1.3139e-05 | 1.3139e-05 |   0.0 |  0.11
Output  | 0          | 0          | 0          |   0.0 |  0.00
Modify  | 0.0011968  | 0.0011968  | 0.0011968  |   0.0 | 10.28
Other   |            | 0.0004482  |            |       |  3.85

Nlocal:             62 ave          62 max          62 min
Histogram: 1 0 0 0 0 0 0 0 0 0
Nghost:            907 ave         907 max         907 min
Histogram: 1 0 0 0 0 0 0 0 0 0
Neighs:          18592 ave       18592 max       18592 min
Histogram: 1 0 0 0 0 0 0 0 0 0

Total # of neighbors = 18592
Ave neighs/atom = 299.87097
Neighbor list builds = 0
Dangerous builds = 0

next nr
jump ${simname}.in loopmin
jump ReaxFF.in loopmin

# Minimize the with cg + box/relax
  fix             frb all box/relax tri 0.0 couple none
  min_style       cg
  min_modify      line quadratic
  minimize        0.0 2.306e-2 10000 10000
Per MPI rank memory allocation (min/avg/max) = 21.23 | 21.23 | 21.23 Mbytes
   Step          Temp          PotEng         Press            Lx             Ly             Xy      
WARNING: Too many warnings: 101 vs 100. All future warnings will be suppressed (src/thermo.cpp:472)
    130220  3.569170922915894e-15   -12006.58166775829  0.02674780831875782    9.865174695996556    8.181122413641265    5.512799954443967
    130221  3.569170922915894e-15   -12006.58166776308  -0.1183065760887065    9.865174737502032    8.181122418605202    5.512799920522486
Loop time of 0.0109276 on 1 procs for 1 steps with 62 atoms

59.5% CPU use with 1 MPI tasks x no OpenMP threads

Minimization stats:
  Stopping criterion = force tolerance
  Energy initial, next-to-last, final = 
     -12006.5816677583  -12006.5816677583  -12006.5816677631
  Force two-norm initial, final = 0.0088048042 0.018156001
  Force max component initial, final = 0.0046296329 0.013278283
  Final line search alpha, max atom move = 0.021599985 0.00028681071
  Iterations, force evaluations = 1 2

MPI task timing breakdown:
Section |  min time  |  avg time  |  max time  |%varavg| %total
---------------------------------------------------------------
Pair    | 0.0094275  | 0.0094275  | 0.0094275  |   0.0 | 86.27
Neigh   | 0          | 0          | 0          |   0.0 |  0.00
Comm    | 1.2614e-05 | 1.2614e-05 | 1.2614e-05 |   0.0 |  0.12
Output  | 0          | 0          | 0          |   0.0 |  0.00
Modify  | 0.0010846  | 0.0010846  | 0.0010846  |   0.0 |  9.93
Other   |            | 0.0004029  |            |       |  3.69

Nlocal:             62 ave          62 max          62 min
Histogram: 1 0 0 0 0 0 0 0 0 0
Nghost:            907 ave         907 max         907 min
Histogram: 1 0 0 0 0 0 0 0 0 0
Neighs:          18592 ave       18592 max       18592 min
Histogram: 1 0 0 0 0 0 0 0 0 0

Total # of neighbors = 18592
Ave neighs/atom = 299.87097
Neighbor list builds = 0
Dangerous builds = 0

# Minimize the with fire
  unfix           frb
  min_style       fire
  minimize        0.0 2.306e-2 10000 10000
  Parameters for fire:
    dmax  delaystep dtgrow dtshrink alpha0 alphashrink tmax tmin   integrator   halfstepback   abcfire  
     0.1     20      1.1     0.5     0.25     0.99      10  0.02 eulerimplicit      yes          no     
Per MPI rank memory allocation (min/avg/max) = 20.11 | 20.11 | 20.11 Mbytes
   Step          Temp          PotEng         Press            Lx             Ly             Xy      
    130221                     0     -12006.581667758  -0.1183062926069471    9.865174737502032    8.181122418605202    5.512799920522486
    130222  3.551501485981386e-15   -12006.58166776346  -0.1183064099409109    9.865174737502032    8.181122418605202    5.512799920522486
Loop time of 0.0114464 on 1 procs for 1 steps with 62 atoms

93.4% CPU use with 1 MPI tasks x no OpenMP threads

Minimization stats:
  Stopping criterion = force tolerance
  Energy initial, next-to-last, final = 
      -12006.581667758   -12006.581667758  -12006.5816677635
  Force two-norm initial, final = 0.0060890122 0.0060890101
  Force max component initial, final = 0.0012104868 0.0012104843
  Final line search alpha, max atom move = 0 0
  Iterations, force evaluations = 1 2

MPI task timing breakdown:
Section |  min time  |  avg time  |  max time  |%varavg| %total
---------------------------------------------------------------
Pair    | 0.0094907  | 0.0094907  | 0.0094907  |   0.0 | 82.91
Neigh   | 0          | 0          | 0          |   0.0 |  0.00
Comm    | 1.2374e-05 | 1.2374e-05 | 1.2374e-05 |   0.0 |  0.11
Output  | 0          | 0          | 0          |   0.0 |  0.00
Modify  | 0.0010796  | 0.0010796  | 0.0010796  |   0.0 |  9.43
Other   |            | 0.0008637  |            |       |  7.55

Nlocal:             62 ave          62 max          62 min
Histogram: 1 0 0 0 0 0 0 0 0 0
Nghost:            907 ave         907 max         907 min
Histogram: 1 0 0 0 0 0 0 0 0 0
Neighs:          18592 ave       18592 max       18592 min
Histogram: 1 0 0 0 0 0 0 0 0 0

Total # of neighbors = 18592
Ave neighs/atom = 299.87097
Neighbor list builds = 0
Dangerous builds = 0

next nr
jump ${simname}.in loopmin
jump ReaxFF.in loopmin

variable        energy equal pe
fix             output all ave/time 1 1 1 v_energy file ${simname}_energy.data
fix             output all ave/time 1 1 1 v_energy file ReaxFF_energy.data
dump            dump1 all custom 1 ${simname}.lammpstrj id type x y z fx fy fz
dump            dump1 all custom 1 ReaxFF.lammpstrj id type x y z fx fy fz
dump_modify     dump1 sort id

fix             nve all nve
run             0
Per MPI rank memory allocation (min/avg/max) = 20.11 | 20.11 | 20.11 Mbytes
   Step          Temp          PotEng         Press            Lx             Ly             Xy      
    130222  3.551501485981386e-15   -12006.58166770388  -0.1183071700147207    9.865174737502032    8.181122418605202    5.512799920522486
Loop time of 7.23e-07 on 1 procs for 0 steps with 62 atoms

553.3% CPU use with 1 MPI tasks x no OpenMP threads

MPI task timing breakdown:
Section |  min time  |  avg time  |  max time  |%varavg| %total
---------------------------------------------------------------
Pair    | 0          | 0          | 0          |   0.0 |  0.00
Neigh   | 0          | 0          | 0          |   0.0 |  0.00
Comm    | 0          | 0          | 0          |   0.0 |  0.00
Output  | 0          | 0          | 0          |   0.0 |  0.00
Modify  | 0          | 0          | 0          |   0.0 |  0.00
Other   |            | 7.23e-07   |            |       |100.00

Nlocal:             62 ave          62 max          62 min
Histogram: 1 0 0 0 0 0 0 0 0 0
Nghost:            907 ave         907 max         907 min
Histogram: 1 0 0 0 0 0 0 0 0 0
Neighs:          18592 ave       18592 max       18592 min
Histogram: 1 0 0 0 0 0 0 0 0 0

Total # of neighbors = 18592
Ave neighs/atom = 299.87097
Neighbor list builds = 0
Dangerous builds = 0
Total wall time: 0:10:47
