units           metal
atom_style      atomic
boundary        p p p
processors		  * * 1
read_data		    AB1.data
Reading data file ...
  triclinic box = (0 0 0) to (9.8329752 8.3524793 49.95895) with tilt (5.1889168 -0.12492273 -0.078983728)
WARNING: Triclinic box skew is large. LAMMPS will run inefficiently. (src/domain.cpp:220)
  1 by 1 by 1 MPI processor grid
  reading atoms ...
  62 atoms
  read_data CPU = 0.013 seconds
mass            1 12.011

# Define potentials
pair_style      tersoff
pair_coeff      * * BNC.tersoff C
Reading tersoff potential file BNC.tersoff with DATE: 2013-03-21


# Variable
variable        thermofrq equal 10
variable        Nloop equal 100     # number of loop to run
variable        binding equal pe


# Output
thermo          ${thermofrq}
thermo          10
thermo_style    custom step temp pe lx ly lz pxx pyy pzz fmax fnorm
thermo_modify   line one format float %20.16g
thermo_modify   flush yes norm no lost warn

# Minimize the system in loops
timestep        1.0e-3
variable        nr loop ${Nloop}
variable        nr loop 100
label           loopmin

# Minimize the with cg + box/relax
  fix             frb all box/relax tri 0.0 couple none
  min_style       cg
  min_modify      line quadratic
  minimize        0.0 1.0e-3 10000 10000
Neighbor list info ...
  update: every = 1 steps, delay = 0 steps, check = yes
  max neighbors/atom: 2000, page size: 100000
  master list distance cutoff = 4.1
  ghost atom cutoff = 4.1
  binsize = 2.05, bins = 8 5 25
  1 neighbor lists, perpetual/occasional/extra = 1 0 0
  (1) pair tersoff, perpetual
      attributes: full, newton on
      pair build: full/bin/atomonly
      stencil: full/bin/3d
      bin: standard
WARNING: Energy due to 6 extra global DOFs will be included in minimizer energies
 (src/min.cpp:225)
Per MPI rank memory allocation (min/avg/max) = 4.202 | 4.202 | 4.202 Mbytes
   Step          Temp          PotEng           Lx             Ly             Lz            Pxx            Pyy            Pzz            Fmax          Fnorm     
         0                     0   -482.4535757060556         9.8329751589    8.352479281900001        49.9589495942    22627.68519508221    16880.03811262091    926.2715610171805    2.722491346540377    11.85002483661531
        10                     0   -482.5393321420589    9.842808134058904    8.358713382364249    49.96102077305186    21028.78465283781    15701.39759088223    884.9894189125201    2.717027773508853    11.79311148805584
        20                     0   -482.6193357535833    9.852641109217808    8.364954703294503    49.96315519328508    19443.30961762392    14530.80983040067    843.9864617529743    2.710065523690972    11.73324071083528
        30                     0     -482.69374667801    9.862474084376712    8.371203312868776    49.96536255429037     17871.0843704601    13368.13609529271     803.232732056421    2.701479656400338    11.66981088832535
        40                     0   -482.7627368400862    9.872307059535615    8.377459282889728    49.96765499937752    16311.92095300718    12213.23004182656    762.6925592000947    2.691114788776936    11.60212558823154
        50                     0     -482.82649322042    9.882140034694519     8.38372269123453    49.97004802607408    14765.61498341567    11065.93576988467    722.3224448955204    2.678774591094403    11.52935852421411
        60                     0   -482.8852225241762    9.891973009853423    8.389993626551426    49.97256186787125    13231.93942584168    9926.085082219775    682.0678560922145    2.664666201242801    11.45050156475044
        70                     0   -482.9391581328287    9.901805985012327    8.396272197483295    49.97522367649079    11710.63491730623    8793.493448646976    641.8581601542417    2.659352495222923    11.36428449614612
        80                     0   -482.9885709976469    9.911638960171231    8.402558551443414    49.97807113886195    10201.39396966795    7667.953711978878    601.5982239075709    2.650390041484785    11.26904512932712
        90                     0   -483.0337878379042    9.921471935330134    8.408852914815423     49.9811588430808    8703.833496846502    6549.225529476373    561.1536029682154    2.637059601716614    11.16250611995806
       100                     0   -483.0752241496281    9.931304910489038    8.415155685279995    49.98457037935699    7217.443053428261    5437.015909516876    520.3223107557461    2.618299458976333    11.04136107056349
       110                     0   -483.1134510209843    9.941137885647942    8.421467665912356    49.98844383242302    5741.476357256269    4330.938554131819    478.7751043884326    2.592430962735814    10.90042448788827
       120                     0   -483.1483092088823    9.950677082020867    8.427601660829541    49.99288383737539    4318.387011735145    3263.213661719058    437.2148995918632    2.557761120192995    10.73618145211095
       130                     0    -483.177069882622    9.958710017895108    8.432778687793302    49.99750728679695    3125.040896487813    2367.404804628753    400.3992958096199    2.517297018147039    10.56446513498027
       140                     0   -483.2016707601652    9.965299176291582    8.437039548738385    50.00242086059303    2147.323086284031    1633.897952886673    367.7294589347094    2.471168955007846    10.38400707826059
       150                     0   -483.2241632401916     9.97060195425326    8.440490190970236    50.00789392691974     1357.78759780701    1042.915603933508    337.9345823164139    2.418168362533666    10.18834803391137
       160                     0   -483.2467306385039    9.974710432253499    8.443203250463418    50.01442987683683    738.3730586796989    581.6893721087245    309.3782962800905    2.355382080138766    9.964554983662248
       170                     0    -483.273313893565    9.977631512725367    8.445224107840572    50.02330100748849    280.2400825498802     244.540864648317    278.7095272567909    2.274612149191174    9.678174950372522
       180                     0   -483.3237569953888    9.979057527113621    8.446612150648857    50.04153756485464   -8.774529420718254    39.24888571283942    228.3027988169366    2.127486450007178    9.127650117681203
       190                     0   -483.4852515404567    9.976911555257136    8.447063099845467    50.09108333855021   -33.72450422784174   0.3683192525527883    91.76939916816201    1.705122930217763     7.35411185979091
       200                     0   -483.6802754641182     9.97376370137383    8.447444129449531    50.10817924180078    -13.9307268178239    4.990395162574734   -24.93784102566917    1.067750027190017    4.811813115604606
       210                     0   -483.7662906827452    9.972472894100019     8.44794544807465    50.08563076912673   -6.410340797689448    4.214989441386852   -37.35687206441934   0.7442439074868354    3.484623363817746
       220                     0   -483.8105364869146    9.971899097182668    8.448262651801222    50.06629226493205   -3.440343070494214    2.494600133862713     -25.002281823333   0.6742059094772785    2.754820115028501
       230                     0   -483.8375774373117    9.971602279489895    8.448423958423113    50.05642095423794   -2.095520142004704    1.117075589242317   -9.429964814357154   0.6167706275180134    2.306555768106232
       240                     0   -483.8561669866605    9.971426756293436    8.448482027483218    50.05481657711268   -1.405720102088434   0.2105933959379222     4.23987367880525   0.5686926937412767    2.006002659358309
       250                     0   -483.8700126878534    9.971309793423123    8.448475197013586    50.05939112059083   -1.041188126089891  -0.4050518459929414    15.07772050013036   0.5277115258295531      1.7903996740233
       260                     0    -483.880918555706    9.971222976736868    8.448427815122736    50.06835705278112  -0.8437783530843657  -0.8201351170548388    23.27416361410778   0.4922519918205287    1.627448419716431
       270                     0   -483.8898614785769    9.971152371483711    8.448355296774443    50.08035751984612  -0.7357640787437559   -1.095254899485829    29.27592311724684   0.4611879976107109    1.499197224897807
       280                     0   -483.8974165093277    9.971090726579472    8.448267504406767    50.09439638789747   -0.677262212128797    -1.27300980060368     33.5324931998752   0.4336914775899836    1.395005189105058
       290                     0   -483.9039453718768    9.971034101325079    8.448170827557819    50.10974881607149  -0.6467741534378664   -1.382902311967275    36.42817698513625   0.4091377678028439    1.308210116404302
       300                     0   -483.9096881069927    9.970980288870845    8.448069452622283    50.12588781662742  -0.6322587733392518   -1.445336923382715    38.27272633306361   0.3870451286871475    1.234439836058157
       310                     0   -483.9148111215314    9.970928030955069     8.44796614463746    50.14242968720552  -0.6267764255017148   -1.474496004094604    39.30958454409168   0.3670349752342013    1.170705887730467
       320                     0   -483.9194340118054    9.970876606057976    8.447862736611324    50.15909467224203  -0.6262464573681076   -1.480308550867168     39.7279725169565   0.3488049552271869    1.114892441216809
       330                     0   -483.9236453523327    9.970825604132123    8.447760441470876    50.17567880598838  -0.6282405575621324   -1.469779299212921    39.67433133472765   0.3321102269944208    1.065455302409847
       340                     0   -483.9275124199572    9.970774799087465    8.447660054508789    50.19203372220667   -0.631309077703075   -1.447885981384731    39.26189614299735   0.3167501196334801    1.021237656570935
       350                     0    -483.931087421604    9.970724074573106    8.447562086940723    50.20805209642757  -0.6345931378944684   -1.418188634807494    38.57830788198167   0.3025584211997592   0.9813532762782199
       360                     0   -483.9344116207023    9.970673379808069     8.44746685531946    50.22365707617084  -0.6375954201737035   -1.383246886041023    37.69152260304828    0.289396172101791   0.9451101152366409
       370                     0   -483.9375181537288    9.970622702840746    8.447374542173613    50.23879454987997  -0.6400417661166254   -1.344908405191855    36.65434790593545    0.277146226600734    0.911958861264098
       380                     0   -483.9404340034383    9.970572054161497    8.447285237592439    50.25342745073051  -0.6417961213079851   -1.304510216437642    35.50790918675784   0.2657090869152223   0.8814573706786235
       390                     0   -483.9431814133597    9.970521456589095    8.447198968014195     50.2675315302235  -0.6428074983173058   -1.263020498693769    34.28429550220149   0.2549996695547803   0.8532454827157403
       400                     0    -483.945778922491    9.970470939021798    8.447115716310925    50.28109220157902  -0.6430765663154201   -1.221139331937664    33.00858156833761   0.2449447654044628   0.8270267888294671
       410                     0   -483.9482421358292    9.970420532599769     8.44703543588661    50.29410216765599   -0.642634447934203   -1.179370878153219    31.70037685027112   0.2354810234527201    0.802555170573335
       420                     0   -483.9505843073726    9.970370268386425    8.446958060616364    50.30655962835669   -0.641529224798849   -1.138075473509855    30.37501627892241   0.2265533348421549   0.7796246778261461
       430                     0   -483.9528167874869    9.970320176012061    8.446883511871457    50.31846691901229  -0.6398173708988182   -1.097507496417484    29.04447900190708   0.2181135264989965   0.7580617939344774
       440                     0   -483.9549493705385    9.970270282928064    8.446811703487034    50.32982947139572  -0.6375583537799852   -1.057843055749069    27.71810021010194   0.2101192966745556   0.7377194382493233
       450                     0   -483.9569905680896    9.970220614047237    8.446742545268462    50.34065501773919  -0.6348112964354961   -1.019200356479079    26.40312500065262   0.2025333413190411   0.7184722550455294
       460                     0   -483.9589478257717    9.970171191625621    8.446675945454333    50.35095297884797  -0.6316329705281692  -0.9816547554065004    25.10514120491401   0.1953226322947668   0.7002128699705439
       470                     0   -483.9608276970278    9.970122035292537    8.446611812431678    50.36073399244362  -0.6280766744590215  -0.9452499386752635    23.82841908279716   0.1884578173643164   0.6828488847637791
       480                     0   -483.9626359834546    9.970073162168029    8.446550055913807    50.37000954886702  -0.6241916563800981  -0.9100062471018832    22.57617905706347   0.1819127185534449   0.6663004427627475
       490                     0   -483.9643778490225    9.970024587028746    8.446490587731533    50.37879170936738  -0.6200229171813583   -0.875926904599642    21.35080359598318   0.1756639105152873   0.6504982410089015
       500                     0   -483.9660579136833    9.969976322496777    8.446433322346341    50.38709288819812  -0.6156112252140773  -0.8430026820356338    20.15400555162589    0.169690364371346   0.6353818955836098
       510                     0   -483.9676803305672    9.969928379235666    8.446378177163934    50.39492568420804   -0.610993280973859  -0.8112154020836604    18.98696240394527     0.16397314543753   0.6208985890558928
       520                     0   -483.9692488500298    9.969880766143499     8.44632507270514    50.40230275096594  -0.6062019571740587  -0.7805405692935496    17.85042368615208   0.1584951555542946   0.6070019452229233
       530                     0   -483.9707668730841    9.969833490537214    8.446273932675565    50.40923669697958  -0.6012665759271164  -0.7509493462038975    16.74479722852914   0.1532409125122155    0.593651088417087
       540                     0    -483.972237496195    9.969786558324806    8.446224683964257    50.41574000948436  -0.5962132089541016  -0.7224100380463429    15.67021859547588    0.148196360484304   0.5808098537376375
       550                     0   -483.9736635490422     9.96973997416387    8.446177256593304    50.42182499673267  -0.5910649727111613  -0.6948892073640882    14.62660713838513   0.1433487064945078      0.5684461214732
       560                     0   -483.9750476264759    9.969693741605974    8.446131583634397    50.42750374483061  -0.5858423114627579  -0.6683524974504633    13.61371134653946    0.138686278836883   0.5565312542866986
       570                     0   -483.9763921157074    9.969647863227124    8.446087601104074    50.43278808602786  -0.5805632731967417  -0.6427652532931253    12.63114560502866   0.1341984040862377    0.545039619855902
       580                     0   -483.9776992195241    9.969602340744922    8.446045247845989    50.43768957602844  -0.5752437539862245  -0.6180929719077545    11.67842003453907   0.1298752999038718   0.5339481848943505
       590                     0   -483.9789709762084    9.969557175123279     8.44600446540629    50.44221947840582  -0.5698977278739116  -0.5943016267873196    10.75496473950693   0.1257079813285923   0.5232361690324515
       600                     0   -483.9802092766959     9.96951236666577    8.445965197906506    50.44638875460706  -0.5645374624198437   -0.571357911596059    9.860149522155666   0.1216881786078653   0.5128847490744484
       610                     0    -483.981415879408    9.969467915098477    8.445927391916863     50.4502080583444  -0.5591736988520762  -0.5492293972521904    8.993299911178015   0.1178082649487778   0.5028768057869483
       620                     0   -483.9825924231375    9.969423819643513    8.445890996332178    50.45368773342047  -0.5538158279281935  -0.5278846429233954     8.15371018689325   0.1140611928178343   0.4931967066969016
       630                     0    -483.983740438277    9.969380079084084    8.445855962251766    50.45683781422709  -0.5484720387311981  -0.5072932639067103    7.340653953609981   0.1104404376341833   0.4838301194570901
       640                     0   -483.9848613566477    9.969336691822011    8.445822242864214    50.45966802831293  -0.5431494591296541  -0.4874259739058367    6.553392702504132   0.1069399478762439   0.4747638512191754
       650                     0   -483.9859565201317    9.969293655928537     8.44578979333752     50.4621878005365  -0.5378542701878354   -0.468254592266196    5.791182727246471   0.1035541007707595   0.4659857101823535
       660                     0   -483.9870271882866    9.969250969189215    8.445758570714949    50.46440625841959   -0.532591819380241  -0.4497520483020335    5.053280689545451    0.100277662845477   0.4574843860869686
       670                     0   -483.9880745450836     9.96920862914353     8.44572853381659    50.46633223839271  -0.5273667156576272  -0.4318923664423917    4.338948070290312  0.09787196547660976   0.4492493469222937
       680                     0   -483.9890997048975    9.969166633119848    8.445699643146595    50.46797429268788  -0.5221829113898508  -0.4146506387034933    3.647454708004222  0.09612574528749718   0.4412707495334487
       690                     0   -483.9901037178441    9.969124978266255    8.445671860805927    50.46934069668332  -0.5170437799625984  -0.3980029985014186    2.978081584804709  0.09442702137233107   0.4335393621634205
       700                     0    -483.991087574563    9.969083661577825    8.445645150410447    50.47043945654401   -0.511952182898062  -0.3819265862739687    2.330122993212653  0.09277431522629977   0.4260464972562353
       710                     0   -483.9920522105065    9.969042679920646    8.445619477014025     50.4712783170363  -0.5069105278266844  -0.3663995133369789    1.702888191735335  0.09116619596306923   0.4187839530964569
       720                     0   -483.9929985098119    9.969002030053046    8.445594807036439    50.47186476941861  -0.5019208206526565  -0.3514008217477088    1.095702645195485  0.08960127887300998   0.4117439630663002
       730                     0   -483.9939273088002    9.968961708644381      8.4455711081958    50.47220605933288  -0.4969847128863868  -0.3369104480496966   0.5079089182495503  0.08807822402450879   0.4049191514795704
       740                     0   -483.9948393991496    9.968921712291589    8.445548349445184    50.47230919463746  -0.4921035433558585  -0.3229091848762302 -0.06113270964362798  0.08659573490019661   0.3983024950991851
       750                     0   -483.9957355307883     9.96888203753384      8.4455265009132    50.47218095313586  -0.4872783710286331  -0.3093786408967781  -0.6120438622875881  0.08515255707318226    0.391887289572623
       760                     0   -483.9966164145332    9.968842680865531    8.445505533848255    50.47182789016707  -0.4825100153787111  -0.2963012062255899   -1.145427868708976  0.08374747691198246   0.3856671201291622
       770                     0   -483.9974827245032    9.968803638747691    8.445485420566245    50.47125634603161  -0.4777990736919371  -0.2836600145404404      -1.661869720167  0.08237932031674562   0.3796358359709692
       780                     0   -483.9983351003457    9.968764907618162    8.445466134401382    50.47047245323466   -0.473145956194093  -0.2714389089673951   -2.161936146424362   0.0810469514865287   0.3737875278714932
       790                     0   -483.9991741492735    9.968726483900541    8.445447649660052    50.46948214353358  -0.4685509044234847  -0.2596224097273163   -2.646175791766217  0.07974927171504552   0.3681165085615697
       800                     0   -484.0000004479545    9.968688364012124    8.445429941577334    50.46829115478106  -0.4640140136650414  -0.2481956812381701    -3.11511946843281  0.07848521821583983   0.3626172955391282
       810                     0    -484.000814544259    9.968650544370888    8.445412986276125    50.46690503755915  -0.4595352457249949  -0.2371445009344838   -3.569280471175631    0.077253762974016   0.3572845959887759
       820                     0   -484.0016169588781    9.968613021401721    8.445396760728585    50.46532916160217  -0.4551144512861993  -0.2264552344129941   -4.009154938052056  0.07605391162807572   0.3521132935392554
       830                     0   -484.0024081868276    9.968575791541852    8.445381242719767    50.46356872200857  -0.4507513799737672  -0.2161147999413634   -4.435222246812177  0.07488470238181362     0.34709843662386
       840                     0    -484.003188698855    9.968538851245697     8.44536641081333    50.46162874524398  -0.4464456953227799  -0.2061106511402588   -4.847945439226018   0.0737452049412092   0.3422352282370551
       850                     0   -484.0039589427428    9.968502196989073    8.445352244319068    50.45951409493802   -0.442196982400242  -0.1964307470197591   -5.247771659857974  0.07263451948376463   0.3375190169109977
       860                     0   -484.0047193445354    9.968465825272967    8.445338723262225    50.45722947747934  -0.4380047638426926  -0.1870635300526836   -5.635132612025974  0.07155177565021716   0.3329452887558055
       870                     0   -484.0054703096822    9.968429732626751    8.445325828354445     50.4547794474143  -0.4338685025461296  -0.1779979022422796   -6.010445015895758  0.07049613157269635   0.3285096604284919
       880                     0   -484.0062122241151    9.968393915611079     8.44531354096622    50.45216841265352  -0.4297876144348855  -0.1692232074941691   -6.374111070885247  0.06946677292119793   0.3242078729119638
       890                     0   -484.0069454552525     9.96835837082034    8.445301843100742    50.44940063949327  -0.4257614721150736  -0.1607292071880241   -6.726518917258542  0.06846291198526118   0.3200357860007438
       900                     0   -484.0076703529501    9.968323094884813     8.44529071736911    50.44648025745663   -0.421789413292436  -0.1525060647257292   -7.068043094573022  0.06748378678030478   0.3159893734031659
       910                     0   -484.0083872503953     9.96828808447253      8.4452801469667    50.44341126396127     -0.4178707469573  -0.1445443265334032   -7.399044990291793  0.06652866017932985   0.3120647183792033
       920                     0   -484.0090964649476    9.968253336290843    8.445270115650738     50.4401975288195  -0.4140047562762289  -0.1368349042804848    -7.71987328848796  0.06559681907302847   0.3082580098457967
       930                     0   -484.0097982989302     9.96821884708775    8.445260607718906    50.43684279857658  -0.4101907042064005  -0.1293690585616601   -8.030864401124886  0.06468757355562219   0.3045655388864282
       940                     0   -484.0104930403806    9.968184613653046    8.445251607988984    50.43335070069319   -0.406427838816197  -0.1221383860836889   -8.332342894230941   0.0638002561364721   0.3009836956119492
       950                     0   -484.0111809637623    9.968150632819214    8.445243101779401     50.4297247475785  -0.4027153955274877  -0.1151348038222759   -8.624621903005821  0.06293422097562276   0.2975089663246274
       960                     0   -484.0118623306301    9.968116901462171    8.445235074890668    50.42596834047851  -0.3990526001531242  -0.1083505308741775   -8.908003533528001  0.06208884314734203   0.2941379309432314
       970                     0   -484.0125373902673    9.968083416501853    8.445227513587684    50.42208477322595  -0.3954386724021203  -0.1017780848358278   -9.182779255925633  0.06126351792259861   0.2908672606526274
       980                     0   -484.0132063802843    9.968050174902652    8.445220404582763    50.41807723585649  -0.3918728288318205 -0.09541026100233999   -9.449230282165459   0.0604576600794658   0.2876937157446987
       990                     0   -484.0138695271892    9.968017173673712    8.445213735019431    50.41394881809691  -0.3883542836385505 -0.08924012278160857   -9.707627934957308  0.05967070323498901   0.2846141436219194
      1000                     0   -484.0145270469264    9.967984409869116    8.445207492456914    50.40970251272938  -0.3848822518076792 -0.08326099402621338   -9.958234003293176  0.05890209919932037   0.2816254769392451
      1010                     0   -484.0151791453877    9.967951880587972    8.445201664855263    50.40534121883763  -0.3814559523177707 -0.07746644341668993   -10.20130108614782  0.05815131735151904   0.2787247318605903
      1020                     0   -484.0158260189006    9.967919582974377    8.445196240561108    50.40086774493825  -0.3780746060448812 -0.07185027839886692   -10.43707292562944   0.0574178440374731   0.2759090064121819
      1030                     0   -484.0164678546863    9.967887514217331       8.445191208294    50.39628481200269   -0.374737441210322 -0.06640653215195436   -10.66578472683435  0.05670118198813416   0.2731754789142106
      1040                     0   -484.0171048313001    9.967855671550536     8.44518655713328    50.39159505637346  -0.3714436896107404 -0.06112945518416004   -10.88766346822849  0.05600084975606463   0.2705214064774648
      1050                     0   -484.0177371190441    9.967824052252167    8.445182276505536    50.38680103257828  -0.3681925941634538 -0.05601350951693675    -11.1029282002889  0.05531638117560315   0.2679441235515318
      1060                     0   -484.0183648803673     9.96779265364453    8.445178356172477    50.38190521604683  -0.3649834025067779 -0.05105335604025508   -11.31179033336797  0.05464732483824743    0.265441040512983
      1070                     0   -484.0189882702381    9.967761473093727    8.445174786219356     50.3769100057328  -0.3618153761614929 -0.04624385041884962   -11.51445391487323  0.05399324358808898   0.2630096422856825
      1080                     0   -484.0196074365016    9.967730508009206     8.44517155704378    50.37181772664564  -0.3586877831142233 -0.04158003131361621   -11.71111589859839  0.05335371403268086   0.2606474869839475
      1090                     0   -484.0202225202211    9.967699755843309    8.445168659345002    50.36663063229435  -0.3555999025722956 -0.03705711764176287   -11.90196639948853  0.05272832607540644   0.2583522045721459
      1100                     0   -484.0208336559987    9.967669214090789     8.44516608411358    50.36135090704769  -0.3525510263849031 -0.03267049720083397   -12.08718894468313   0.0521166824624369   0.2561214955357416
      1110                     0   -484.0214409722873    9.967638880288263     8.44516382262147    50.35598066841263  -0.3495404567272165 -0.02841572390193505   -12.26696071095741  0.05151839834341129   0.2539531295589609
      1120                     0   -484.0220445916776    9.967608752013644    8.445161866412441    50.35052196923517  -0.3465675078450924 -0.02428850885954738   -12.44145275718819  0.05093310085220366    0.251844944205227
      1130                     0   -484.0226446311802    9.967578826885571    8.445160207292895    50.34497679982515  -0.3436315049476308 -0.02028471504382977    -12.6108302430793  0.05036042869741726   0.2497948435981749
      1140                     0   -484.0232412024894     9.96754910256279    8.445158837322989    50.33934709000895  -0.3407317871342327 -0.01640035199311708   -12.77525264562707  0.04980003177356802   0.2478007971009441
      1150                     0   -484.0238344122359    9.967519576743545    8.445157748808107    50.33363471111176  -0.3378677050459148 -0.01263156949693308    -12.9348739624271  0.04925157078250517    0.245860837992099
      1160                     0   -484.0244243622256    9.967490247164914    8.445156934290628    50.32784147787244  -0.3350386217011538 -0.008974651242596764   -13.08984291187119   0.0487147168684338   0.2439730621379723
      1170                     0   -484.0250111496705    9.967461111602189    8.445156386542015    50.32196915029296  -0.3322439134489257 -0.005426014067498492   -13.24030312241452  0.04818915126704138   0.2421356266604636
      1180                     0   -484.0255948674031    9.967432167868211    8.445156098555152    50.31601943542524  -0.3294829700491678 -0.001982197395662504   -13.38639331585932  0.04767456496637834    0.240346748600752
      1190                     0   -484.0261756040857     9.96740341381266    8.445156063536997    50.30999398909697  -0.3267551891029641  0.00136013840414037   -13.52824748551335  0.04717065838352069   0.2386047035791964
      1200                     0   -484.0267534444077    9.967374847321457    8.445156274901473    50.30389441757906  -0.3240599870243982 0.004604216432038324   -13.66599506460727  0.04667714104702776   0.2369078244522387
      1210                     0   -484.0273284692737    9.967346466316037    8.445156726262615    50.29772227919656  -0.3213967877011741 0.007753148724939899   -13.79976109187275  0.04619373129406658   0.2352544999667487
      1220                     0   -484.0279007559793    9.967318268752704    8.445157411427976    50.29147908588486  -0.3187650307117718  0.01080993947251706   -13.92966636793729  0.04572015598059365   0.2336431734143314
      1230                     0   -484.0284703783867    9.967290252621947    8.445158324392242    50.28516630469338  -0.3161641654050983  0.01377748854066172   -14.05582760686253  0.04525615019703248     0.23207234128516
      1240                     0   -484.0290374070802     9.96726241594777    8.445159459331078    50.27878535923854  -0.3135936533381559  0.01665859822275892   -14.17835758390898  0.04480145699936221   0.2305405519243019
      1250                     0   -484.0296019095292     9.96723475678704    8.445160810595212    50.27233763110727  -0.3110529692638582  0.01945597327346994   -14.29736527479639  0.04435582714520388   0.2290464041907399
      1260                     0   -484.0301639502262     9.96720727322881    8.445162372704697    50.26582446121368  -0.3085415988649537  0.02217222628296944   -14.41295599241864  0.04391901884179079   0.2275885461223086
      1270                     0   -484.0307235908339    9.967179963393681    8.445164140343385    50.25924715110934  -0.3060590397894765  0.02480988006822534   -14.52523151649795  0.04349079750498339   0.2261656736062432
      1280                     0   -484.0312808903154    9.967152825433132    8.445166108353593    50.25260696424992  -0.3036047988957551  0.02737137223775789   -14.63429021943052  0.04307093552174036   0.2247765290587782
      1290                     0    -484.031835905061    9.967125857528911    8.445168271730948    50.24590512721898   -0.301178396955194  0.02985905894024962   -14.74022718769466   0.0426592120261278   0.2234199001138479
      1300                     0   -484.0323886890118    9.967099057892378    8.445170625619427    50.23914283091059  -0.2987793630550953  0.03227521349818314   -14.84313433811872  0.04225541268095157   0.2220946183236458
      1310                     0   -484.0329392937716    9.967072424763899    8.445173165306535    50.23232123167232  -0.2964072389519983  0.03462203608402589    -14.9431005295566  0.04185932946556303   0.2207995578719596
      1320                     0   -484.0334877687193    9.967045956412218    8.445175886218694    50.22544145240951  -0.2940615752955996  0.03690164880176239   -15.04021167225708  0.04147076047673829   0.2195336343019103
      1330                     0   -484.0340341611124    9.967019651133887     8.44517878391674    50.21850458365276  -0.2917419342752226  0.03911610560045565   -15.13455083041272  0.04108950973009275   0.2182958032593937
      1340                     0   -484.0345785161865    9.966993507252626    8.445181854091622    50.21151168458962  -0.2894478865054328  0.04126738952607192   -15.22619832381081  0.04071538697108845   0.2170850592535913
      1350                     0   -484.0351208772499    9.966967523118797      8.4451850925602    50.20446378406145  -0.2871790139693854  0.04335741878589154   -15.31523182379179   0.0403482074966288   0.2159004344358101
      1360                     0   -484.0356612857756    9.966941697108771    8.445188495261229     50.1973618815273  -0.2849349046106209  0.04538804656664477   -15.40172644537194  0.03998779197586168   0.2147409973974269
      1370                     0   -484.0361997814848    9.966916027624455    8.445192058251454    50.19020694799516  -0.2827151617224978  0.04736106414696283   -15.48575483816583  0.03963396628202272   0.2136058519892002
      1380                     0   -484.0367364024293    9.966890513092656    8.445195777701839    50.18299992692226  -0.2805193904801456  0.04927820446041007    -15.5673872730537  0.03928656132901126    0.212494136160656
      1390                     0   -484.0372711850723    9.966865151964608    8.445199649893942    50.17574173508533  -0.2783472112486653  0.05114114196389197   -15.64669172250405   0.0389454129134266   0.2114050208227639
      1400                     0     -484.03780416436    9.966839942715426     8.44520367121639    50.16843326342183  -0.2761982487176718  0.05295149407775228   -15.72373394407955  0.03861036156272026   0.2103377087329813
      1410                     0   -484.0383353737905    9.966814883843593    8.445207838161469      50.161075377843  -0.2740721379253756  0.05471082911411947   -15.79857755586745  0.03828125238728183   0.2092914334041227
      1420                     0   -484.0388648454864    9.966789973870469    8.445212147321868    50.15366892002001  -0.2719685219269966   0.0564206598156839   -15.87128411011903  0.03795793493904969   0.2082654580376196
      1430                     0   -484.0393926102548    9.966765211339787     8.44521659538748    50.14621470814394  -0.2698870493735031  0.05808245186444728    -15.9419131664741   0.0376402630739892   0.2072590744807326
      1440                     0   -484.0399186976497    9.966740594817207    8.445221179142358    50.13871353766051  -0.2678273797484257  0.05969761973960075   -16.01052235953797  0.03732809481967938   0.2062716022095565
      1450                     0   -484.0404431360303    9.966716122889807    8.445225895461723     50.1311661819804  -0.2657891781010214   0.0612675356779376   -16.07716746665114  0.03702129224765142   0.2053023873367925
      1460                     0   -484.0409659526147    9.966691794165682    8.445230741309121    50.12357339316606  -0.2637721180261029  0.06279352496599139   -16.14190247062728  0.03671972135048263     0.20435080164519
      1470                     0   -484.0414871735374    9.966667607273456    8.445235713733656    50.11593590259574  -0.2617758801443467  0.06427686764866263   -16.20477962267869  0.03642325192087789   0.2034162416467123
      1480                     0   -484.0420068238924    9.966643560861856    8.445240809867279    50.10825442160581   -0.259800149740992  0.06571880643774691   -16.26584950092476  0.03614784635866963   0.2024981276670256
      1490                     0   -484.0425249277872    9.966619653599329    8.445246026922238     50.1005296421115  -0.2578446215358813  0.06712054011021668   -16.32516106839377  0.03602103009556779   0.2015959029562367
      1500                     0   -484.0430415083849    9.966595884173582    8.445251362188547    50.09276223720745   -0.255908994813369  0.06848323124300196   -16.38276172768359  0.03589600430150908   0.2007090328246982
      1510                     0   -484.0435565879487    9.966572251291225    8.445256813031579    50.08495286174851  -0.2539929770748032  0.06980800371183751   -16.43869737498277  0.03577271577536645   0.1998370038046798
      1520                     0   -484.0440701878834    9.966548753677355    8.445262376889715    50.07710215291127  -0.2520962810994265  0.07109594452515718   -16.49301245043026   0.0356511129089665    0.198979322837229
      1530                     0   -484.0445823287733    9.966525390075178    8.445268051272086    50.06921073073734  -0.2502186239904347  0.07234810771560779   -16.54574998853643  0.03553114564005266   0.1981355164840453
      1540                     0   -484.0450930304218    9.966502159245659    8.445273833756383    50.06127919865882  -0.2483597316908834  0.07356551026070653   -16.59695166473823  0.03541276540340521    0.197305130164201
      1550                     0   -484.0456023118847    9.966479059967138    8.445279721986729    50.05330814400648  -0.2465193336961779  0.07474914130636151   -16.64665784300156  0.03529592509028301   0.1964877274153278
      1560                     0    -484.046110191506    9.966456091035003     8.44528571367165    50.04529813850127  -0.2446971662419642  0.07589995396211931   -16.69490761906899    0.035180579003389   0.1956828891791295
      1570                     0   -484.0466166869489     9.96643325126133     8.44529180658208    50.03724973873017  -0.2428929704806771  0.07701887186554716   -16.74173886246441  0.03506668281559466   0.1948902131102848
      1580                     0   -484.0471218152278    9.966410539474548    8.445297998549426    50.02916348660614  -0.2411064911994158  0.07810679234450735    -16.7871882598799  0.03495419352965845   0.1941093129087931
      1590                     0   -484.0476255927356    9.966387954519146    8.445304287463753    50.02103990981347  -0.2393374812712567  0.07916458074034598   -16.83129135274044  0.03484306944017901    0.193339817675808
      1600                     0   -484.0481280352734     9.96636549525533    8.445310671271955    50.01287952223828  -0.2375856972159435  0.08019307607593094   -16.87408257722229  0.03473327009411886   0.1925813712907773
      1610                     0   -484.0486291580762    9.966343160558703    8.445317147976024    50.00468282438561  -0.2358508976696166  0.08119309232215639   -16.91559529947511  0.03462475625564332   0.1918336318117203
      1620                     0   -484.0491289758393    9.966320949320014    8.445323715631394    49.99645030378259  -0.2341328508929692  0.08216541594047726   -16.95586185306214  0.03451748986992886   0.1910962708959878
      1630                     0   -484.0496275027406    9.966298860444825    8.445330372345289     49.9881824353688  -0.2324313262720448    0.083110807704234   -16.99491357241637  0.03441143402885583   0.1903689732428456
      1640                     0   -484.0501247524644    9.966276892853241    8.445337116275136    49.97987968187397  -0.2307460987957184  0.08403000915506452   -17.03278082588117  0.03430655293745799     0.18965143605563
      1650                     0   -484.0506207382217    9.966255045479635    8.445343945627092    49.97154249418368  -0.2290769464526644  0.08492373249077542   -17.06949304801692  0.03420281188173391   0.1889433685246973
      1660                     0   -484.0511154727761    9.966233317272374    8.445350858654518    49.96317131169334  -0.2274236536411046  0.08579267237516086     -17.105078770944  0.03410017719719871   0.1882444913290424
      1670                     0   -484.0516089684557    9.966211707193569    8.445357853656574     49.9547665626506  -0.2257860073158981  0.08663749940877515   -17.13956565246377   0.0339986162380238   0.1875545361572221
      1680                     0   -484.0521012371797    9.966190214218795     8.44536492897684    49.94632866448707   -0.224163798085575  0.08745886395601488   -17.17298050720576  0.03389809734777272   0.1868732452463145
      1690                     0   -484.0525922904692    9.966168837336864    8.445372083001963    49.93785802413938  -0.2225568219431412  0.08825739701956924   -17.20534933241227  0.03379858983011719   0.1862003709388751
      1700                     0   -484.0530821394707    9.966147575549581    8.445379314160382    49.92935503835989  -0.2209648775027358  0.08903370863823984   -17.23669733629151  0.03370006392190283   0.1855356752570964
      1710                     0   -484.0535707949676    9.966126427871487    8.445386620921067    49.92082009401762  -0.2193877672882769  0.08978838993044197   -17.26704896148692  0.03360249076446886   0.1848789294933424
      1720                     0   -484.0540582673976    9.966105393329645    8.445394001792282    49.91225356839004  -0.2178252981991597   0.0905220149954999   -17.29642791316757  0.03350584237868537   0.1842299138176966
      1730                     0   -484.0545445668699    9.966084470963411    8.445401455320441    49.90365582944488  -0.2162772788949879  0.09123513954538355   -17.32485718053199  0.03341009163865505   0.1835884169002403
      1740                     0   -484.0550297031725    9.966063659824204    8.445408980088956    49.89502723611366  -0.2147435222883203  0.09192830230346373    -17.3523590608532  0.03331521224676082   0.1829542355490143
      1750                     0   -484.0555136857935    9.966042958975313    8.445416574717129    49.88636813855628  -0.2132238462541409  0.09260202542938452   -17.37895518244241  0.03322117870998131   0.1823271743625702
      1760                     0   -484.0559965239273    9.966022367491661    8.445424237859084    49.87767887841737  -0.2117180692299481  0.09325681574966149   -17.40466652635827  0.03312796631574833   0.1817070453966774
      1770                     0   -484.0564782264906    9.966001884459619    8.445431968202747    49.86895978907468  -0.2102260147427716  0.09389316324656088   -17.42951344614515  0.03303555110999012   0.1810936678445817
      1780                     0   -484.0569588021346    9.965981508976796    8.445439764468828    49.86021119587962  -0.2087475093166745  0.09451154313048891   -17.45351568919176  0.03294390987417295   0.1804868677305431
      1790                     0    -484.057438259251    9.965961240151834    8.445447625409852    49.85143341639021  -0.2072823796042642  0.09511241729606018   -17.47669241539921  0.03285302010415458   0.1798864776161711
      1800                     0   -484.0579166059882     9.96594107710426    8.445455549809227    49.84262676059689  -0.2058304608950943   0.0956962328590628   -17.49906221723313   0.0327628599891826   0.1792923363187361
      1810                     0   -484.0583938502569    9.965921018964234    8.445463536480315    49.83379153114133  -0.2043915850063459  0.09626342471963487    -17.5206431366194  0.03267340839068411   0.1787042886416259
      1820                     0   -484.0588699997442    9.965901064872421    8.445471584265583    49.82492802352823  -0.2029655908347786   0.0968144110098319   -17.54145268374291  0.03258464482446777   0.1781221851161124
      1830                     0   -484.0593450619169    9.965881213979788    8.445479692035692    49.81603652633076  -0.2015523190895384  0.09734960254755651   -17.56150785222624  0.03249654943904634   0.1775458817537146
      1840                     0   -484.0598190440356    9.965861465447432    8.445487858688731    49.80711732138958  -0.2001516126937266   0.0978693936792828   -17.58082513810386  0.03240910299952127   0.1769752398095692
      1850                     0   -484.0602919531602    9.965841818446403    8.445496083149376    49.79817068400568  -0.1987633172130042  0.09837416670449484   -17.59942055281679  0.03232228686724303   0.1764101255556773
      1860                     0   -484.0607637961565    9.965822272157554    8.445504364368107    49.78919688312741  -0.1973872812773027  0.09886429535476685   -17.61730964178984  0.03223608298286207   0.1758504100638037
      1870                     0   -484.0612345797075    9.965802825771368    8.445512701320473    49.78019618153144  -0.1960233566193182  0.09934014036393958   -17.63450749618801  0.03215047384983949   0.1752959689980078
      1880                     0   -484.0617043103164    9.965783478487779    8.445521093006354    49.77116883599854  -0.1946713940340481  0.09980205262831829   -17.65102876885442  0.03206544251615384   0.1747466824160974
      1890                     0   -484.0621729943178    9.965764229516045    8.445529538449248    49.76211509748377   -0.193331250720773   0.1002503711718245   -17.66688768778299  0.03198097256029231   0.1742024345794191
      1900                     0   -484.0626406378787    9.965745078074592    8.445538036695586    49.75303521128146  -0.1920027848755237   0.1006854273657822   -17.68209807006308  0.03189704807351956   0.1736631137712037
      1910                     0   -484.0631072470101    9.965726023390838    8.445546586814078    49.74392941718533  -0.1906858576722756   0.1011075388976548   -17.69667333358676  0.03181365364544742   0.1731286121229022
      1920                     0   -484.0635728275699    9.965707064701071    8.445555187895048    49.73479794964341  -0.1893803316307211   0.1015170162541726   -17.71062651135536  0.03173077434950544   0.1725988254480492
      1930                     0   -484.0640373852667    9.965688201250268    8.445563839049802    49.72564103790837  -0.1880860691897318   0.1019141638299666   -17.72397026124348  0.03164839572654521   0.1720736530832576
      1940                     0   -484.0645009256722    9.965669432292014     8.44557253941006    49.71645890618365  -0.1868029407918884   0.1022992720115728   -17.73671687979667  0.03156650377426662   0.1715529977368758
      1950                     0   -484.0649634542173    9.965650757088302    8.445581288127336    49.70725177376463  -0.1855308136796985   0.1026726240274448   -17.74887831238854  0.03148508492975122    0.171036765343267
      1960                     0   -484.0654249762039    9.965632174909437    8.445590084372363    49.69801985517581  -0.1842695601015124   0.1030344960831015   -17.76046616466672  0.03140412605810983   0.1705248649246552
      1970                     0   -484.0658854968061    9.965613685033873    8.445598927334567    49.68876336030373  -0.1830190517990212   0.1033851566807217    -17.7714917128392  0.03132361444043363   0.1700172084586872
      1980                     0   -484.0663450210754    9.965595286748108    8.445607816221509    49.67948249452601  -0.1817791669746443   0.1037248646373172   -17.78196591425087  0.03124353775883093   0.1695137107514826
      1990                     0   -484.0668035539464     9.96557697934653    8.445616750258376    49.67017745883637  -0.1805497803635856   0.1040538721341472    -17.7918994167092  0.03116388408640591   0.1690142893171291
      2000                     0   -484.0672611002373     9.96555876213132    8.445625728687467    49.66084844996598  -0.1793307736874769   0.1043724234509488   -17.80130256867641  0.03108464187349658   0.1685188642619717
      2010                     0    -484.067717664658    9.965540634412285    8.445634750767715    49.65149566050118  -0.1781220261442171   0.1046807577294136   -17.81018542824922   0.0310057999375718   0.1680273581745855
      2020                     0   -484.0681732518098    9.965522595506787    8.445643815774211    49.64211927899744  -0.1769234218830369   0.1049791044501511   -17.81855777195037  0.03092734745146353   0.1675396960201783
      2030                     0   -484.0686278661933    9.965504644739577    8.445652922997736    49.63271949009035   -0.175734844142769   0.1052676890302897    -17.8264291044693  0.03084927393287973   0.1670558050401426
      2040                     0   -484.0690815122083    9.965486781442717    8.445662071744318    49.62329647460276  -0.1745561823163997   0.1055467288626317   -17.83380866519074  0.03077156923406832   0.1665756146562234
      2050                     0   -484.0695341941564    9.965469004955427    8.445671261334819    49.61385040964926  -0.1733873222198348   0.1058164343280086   -17.84070543771935  0.03069422352939211   0.1660990563783079
      2060                     0   -484.0699859162493    9.965451314624005    8.445680491104477    49.60438146873715  -0.1722281564240644   0.1060770123400196   -17.84712815757426  0.03061722730870975   0.1656260637174566
      2070                     0   -484.0704366826055    9.965433709801687    8.445689760402544    49.59488982186453  -0.1710785750063559   0.1063286613769526   -17.85308531917432  0.03054057136470922   0.1651565721019401
      2080                     0   -484.0708864972563    9.965416189848558    8.445699068591846    49.58537563561546  -0.1699384724225009   0.1065715768236898   -17.85858518456704  0.03046424678568782   0.1646905187977676
      2090                     0   -484.0713353641486    9.965398754131435     8.44570841504845     49.5758390732525  -0.1688077440438761   0.1068059449779831   -17.86363578867876   0.0303882449442413   0.1642278428321621
      2100                     0   -484.0717832871468    9.965381402023752    8.445717799161239    49.56628029480595  -0.1676862851656429   0.1070319517894154   -17.86824494770748  0.03031255749106843   0.1637684849212919
      2110                     0   -484.0722302700341    9.965364132905492    8.445727220331602    49.55669945716122  -0.1665739959011569   0.1072497730594169   -17.87242026508759  0.03023717634383205   0.1633123874006266
      2120                     0   -484.0726763165187    9.965346946163029    8.445736677973057     49.5470967141429  -0.1654707748115868   0.1074595818586281   -17.87616913817322  0.03016209367983635    0.162859494158761
      2130                     0   -484.0731214302315    9.965329841189076    8.445746171510907    49.53747221659695  -0.1643765242732514   0.1076615484068651   -17.87949876540493  0.03008730192782327   0.1624097505742725
      2140                     0   -484.0735656147298    9.965312817382564    8.445755700381939     49.5278261124698  -0.1632911471939996   0.1078558347003456      -17.88241615009  0.03001279376108101   0.1619631034554218
      2150                     0   -484.0740088735021     9.96529587414854    8.445765264034096     49.5181585468857  -0.1622145469517292   0.1080425983074574   -17.88492810885988  0.02993856208743284   0.1615195009825381
      2160                     0   -484.0744512099653    9.965279010898087    8.445774861926127     49.5084696622217  -0.1611466307704976   0.1082219962949496   -17.88704127529275  0.02986460004342428    0.161078892653065
      2170                     0   -484.0748926274699    9.965262227048212    8.445784493527366    49.49875959818009  -0.1600873038049945   0.1083941770368625   -17.88876210749982  0.02979090098780091   0.1606412292292433
      2180                     0    -484.075333129302    9.965245522021785    8.445794158317367    49.48902849185886   -0.159036477596478   0.1085592873026435   -17.89009689119822  0.02971745849177265   0.1602064626879808
      2190                     0   -484.0757727186833    9.965228895247403    8.445803855785666    49.47927647782043  -0.1579940602189383   0.1087174687024682   -17.89105174681385  0.02964426633587525   0.1597745461732911
      2200                     0   -484.0762113987724    9.965212346159332    8.445813585431484    49.46950368815779  -0.1569599634376145   0.1088688618443143   -17.89163263372102   0.0295713184994294   0.1593454339501753
      2210                     0   -484.0766491726694    9.965195874197406    8.445823346763493    49.45971025255898  -0.1559340989383184   0.1090135978325829   -17.89184535456475  0.02949860915716862   0.1589190813619837
      2220                     0   -484.0770860434152    9.965179478806959    8.445833139299518    49.44989629837004  -0.1549163820374969   0.1091518085351858   -17.89169556023293  0.02942613267195893   0.1584954447882941
      2230                     0   -484.0775220139918    9.965163159438715    8.445842962566308    49.44006195065555  -0.1539067279695757    0.109283622466063   -17.89118875590473  0.02935388358817503   0.1580744816054931
      2240                     0   -484.0779570873264    9.965146915548717    8.445852816099304    49.43020733225745   -0.152905052915512   0.1094091624222702   -17.89033030333024  0.02928185662700844   0.1576561501488969
      2250                     0    -484.078391266292    9.965130746598241    8.445862699442388    49.42033256385236  -0.1519112745071077   0.1095285488209902   -17.88912542628487  0.02921004667943372   0.1572404096768256
      2260                     0   -484.0788245537084    9.965114652053705    8.445872612147658    49.41043776400738  -0.1509253107072471   0.1096419001151541   -17.88757921433917  0.02913844880137995   0.1568272203359524
      2270                     0    -484.079256952342    9.965098631386631     8.44588255377522    49.40052304923385  -0.1499470836775496   0.1097493287680739   -17.88569662728257    0.029067058209168   0.1564165431286384
      2280                     0   -484.0796884649094    9.965082684073504    8.445892523892951    49.39058853403971  -0.1489765124744633   0.1098509473714456   -17.88348249867999   0.0289958702728802   0.1560083398814139
      2290                     0   -484.0801190940776    9.965066809595745    8.445902522076306    49.38063433098048  -0.1480135208067283    0.109946864731012   -17.88094153945907  0.02892488051155118    0.155602573215148
      2300                     0   -484.0805488424658    9.965051007439609    8.445912547908122    49.37066055070854  -0.1470580321016248   0.1100371845303355   -17.87807834160862  0.02885408458943839   0.1551992065163063
      2310                     0   -484.0809777126436    9.965035277096128    8.445922600978408    49.36066730202104  -0.1461099712638552   0.1101220101653792   -17.87489738293634  0.02878347831036132   0.1547982039095907
      2320                     0   -484.0814057071366    9.965019618061014    8.445932680884159    49.35065469190651  -0.1451692640637136    0.110201442010669   -17.87140302858005  0.02871305761324272   0.1543995302322214
      2330                     0   -484.0818328284238    9.965004029834605    8.445942787229191    49.34062282558995  -0.1442358362997376   0.1102755766593341   -17.86759953545537  0.02864281856753936   0.1540031510084573
      2340                     0   -484.0822590789405    9.964988511921794     8.44595291962392    49.33057180657677  -0.1433096169560583   0.1103445103892479   -17.86349105554534  0.02857275736904119   0.1536090324264432
      2350                     0    -484.082684461077    9.964973063831955    8.445963077685242    49.32050173669522  -0.1423905352025958   0.1104083342001875   -17.85908163847591  0.02850287033541399   0.1532171413150874
      2360                     0   -484.0831089771832    9.964957685078859    8.445973261036315    49.31041271613792  -0.1414785187706787    0.110467140537903   -17.85437523525965  0.02843315390306012   0.1528274451224411
      2370                     0   -484.0835326295662    9.964942375180639    8.445983469306439    49.30030484350179  -0.1405735011844922   0.1105210151878444   -17.84937570041216  0.02836507468403604   0.1524399118949682
      2380                     0   -484.0839554204918    9.964927133659693    8.445993702130876    49.29017821582725  -0.1396754127393498   0.1105700443908945   -17.84408679516289  0.02829934332307193   0.1520545102579328
      2390                     0   -484.0843773521864    9.964911960042633    8.446003959150682    49.28003292863595  -0.1387841860298164   0.1106143133808726   -17.83851219034034  0.02823372827333981   0.1516712093961785
      2400                     0   -484.0847984268376     9.96489685386023    8.446014240012607    49.26986907596739  -0.1378997567833002   0.1106538999772593   -17.83265546963063  0.02816822760456261    0.151289979036328
      2410                     0   -484.0852186465926    9.964881814647333    8.446024544368896    49.25968675041472  -0.1370220591122951   0.1106888860886559   -17.82652013046604  0.02810283944394465   0.1509107894292825
      2420                     0    -484.085638013564    9.964866841942799    8.446034871877181    49.24948604315949  -0.1361510271709978   0.1107193481445104   -17.82010958788698  0.02803756197424057   0.1505336113336332
      2430                     0   -484.0860565298241    9.964851935289461    8.446045222200334    49.23926704400498  -0.1352865986256664   0.1107453638828171    -17.8134271772839   0.0279723934331535   0.1501584160001311
      2440                     0   -484.0864741974106    9.964837094234049    8.446055595006349    49.22902984140897  -0.1344287097779629   0.1107670056379823   -17.80647615583456  0.02790733211003249   0.1497851751565182
      2450                     0   -484.0868910183252     9.96482231832714    8.446065989968201    49.21877452251547  -0.1335773003049863   0.1107843459716583   -17.79925970441587  0.02784237634511366   0.1494138609928425
      2460                     0   -484.0873069945345    9.964807607123094     8.44607640676373     49.2085011731856  -0.1327323095432016   0.1107974540919624   -17.79178093126192  0.02777752452681792   0.1490444461479244
      2470                     0   -484.0877221279705    9.964792960179988    8.446086845075511    49.19820987802726    -0.13189367643259   0.1108064004945453   -17.78404287361978  0.02771277509096559   0.1486769036959117
      2480                     0   -484.0881364205313    9.964778377059581    8.446097304590758     49.1879007204242  -0.1310613425461347   0.1108112502475386   -17.77604849864384  0.02764812651862558   0.1483112071336844
      2490                     0   -484.0885498740826    9.964763857327235    8.446107785001193    49.17757378256432  -0.1302352486773663    0.110812069088066   -17.76780070705707  0.02758357733512229   0.1479473303687634
      2500                     0   -484.0889624904561    9.964749400551886    8.446118286002932    49.16722914546696  -0.1294153376822974   0.1108089223292895   -17.75930233408308  0.02751912610827201   0.1475852477077217
      2510                     0   -484.0893742714527    9.964735006305977    8.446128807296402    49.15686688900943  -0.1286015523348461   0.1108018722980697   -17.75055615199327  0.02745477144629371   0.1472249338450332
      2520                     0   -484.0897852188398    9.964720674165394    8.446139348586227    49.14648709195279  -0.1277938372308409   0.1107909789272129   -17.74156487138465  0.02739051199732911   0.1468663638524486
      2530                     0   -484.0901953343559    9.964706403709439     8.44614990958112    49.13608983196691  -0.1269921362362719   0.1107763028923955   -17.73233114305966  0.02732634644743737   0.1465095131687981
      2540                     0   -484.0906046197086     9.96469219452077     8.44616048999381    49.12567518565474  -0.1261963956070627   0.1107579012318205   -17.72285756081204  0.02726227351915844   0.1461543575900981
      2550                     0   -484.0910130765729    9.964678046185348    8.446171089540915    49.11524322857594  -0.1254065624599717   0.1107358313847223   -17.71314666050429   0.0271982919710283   0.1458008732605103
      2560                     0   -484.0914207065979    9.964663958292372    8.446181707942873    49.10479403526997  -0.1246225810379038   0.1107101497940481   -17.70320092542258  0.02713440059580086   0.1454490366629608
      2570                     0   -484.0918275114008     9.96464993043427    8.446192344923855    49.09432767927809  -0.1238444004222613   0.1106809106616413   -17.69302278377772  0.02707059821920643   0.1450988246108471
      2580                     0   -484.0922334925721    9.964635962206616    8.446203000211671    49.08384423316506  -0.1230719686349061   0.1106481684568699   -17.68261461391472  0.02700688369916882   0.1447502142395696
      2590                     0    -484.092638651672    9.964622053208116    8.446213673537702    49.07334376854027  -0.1223052343703802   0.1106119722762576   -17.67197874307342  0.02694325592308389   0.1444031829986737
      2600                     0   -484.0930429902343    9.964608203040529    8.446224364636791    49.06282635607786  -0.1215441479529054   0.1105723773029313   -17.66111745125827  0.02687971380905718   0.1440577086440661
      2610                     0   -484.0934465097654    9.964594411308635    8.446235073247207    49.05229206553678  -0.1207886589759501   0.1105294293115895   -17.65003296890993   0.0268162563034049    0.143713769231192
      2620                     0   -484.0938492117447    9.964580677620219    8.446245799110521    49.04174096577964  -0.1200387191984844   0.1104831806697498   -17.63872748317619  0.02675288237977624   0.1433713431074863
      2630                     0   -484.0942510976232    9.964567001585968    8.446256541971582    49.03117312479178  -0.1192942783426908   0.1104336773483965   -17.62720313521826  0.02668959103902013   0.1430304089058406
      2640                     0   -484.0946521688301    9.964553382819499    8.446267301578409    49.02058860969905  -0.1185552901894841   0.1103809667220044    -17.6154620228498  0.02662638130646722   0.1426909455380365
      2650                     0   -484.0950524267629    9.964539820937267     8.44627807768213     49.0099874867857  -0.1178217069137261   0.1103250969254285   -17.60350620271948  0.02656325223295675   0.1423529321886513
      2660                     0   -484.0954518727984    9.964526315558526    8.446288870036947    48.99936982151107  -0.1170934801601365   0.1102661100530173   -17.59133768959711  0.02650020289240096   0.1420163483089438
      2670                     0   -484.0958505082867    9.964512866305331    8.446299678400015    48.98873567852662  -0.1163705666736523   0.1102040536187057   -17.57895845944461  0.02643723238247109   0.1416811736109924
      2680                     0   -484.0962483345523     9.96449947280246    8.446310502531459    48.97808512169161  -0.1156529189618292   0.1101389649118483   -17.56637044941319  0.02637433982154103   0.1413473880623601
      2690                     0   -484.0966453528974    9.964486134677383    8.446321342194208    48.96741821408897  -0.1149404933240773    0.110070892165481   -17.55357555839004  0.02631152435025652   0.1410149718807727
      2700                     0   -484.0970415645974    9.964472851560231    8.446332197154021    48.95673501804055  -0.1142332447385931   0.1099998760261962   -17.54057564928832  0.02624878512942652    0.140683905528504
      2710                     0   -484.0974369709062    9.964459623083753    8.446343067179416    48.94603559512171   -0.113531128694212   0.1099259561711688   -17.52737255028167  0.02618612133913822   0.1403541697077628
      2720                     0    -484.097831573054    9.964446448883283    8.446353952041594     48.9353200061757  -0.1128341022742082   0.1098491715221353   -17.51396805385274  0.02612353217816565   0.1400257453562218
      2730                     0    -484.098225372247    9.964433328596726    8.446364851514387    48.92458831132754   -0.112142124872438   0.1097695611491001   -17.50036391990021  0.02606101686478912   0.1396986136415408
      2740                     0   -484.0986183696695    9.964420261864463    8.446375765374214    48.91384056999752  -0.1114551513763089   0.1096871654189251    -17.4865618753923  0.02599857463299182   0.1393727559576136
      2750                     0   -484.0990105664828    9.964407248329374    8.446386693400031    48.90307684091434  -0.1107731401551055   0.1096020220101306   -17.47256361556711  0.02593620473498537   0.1390481539200796
      2760                     0   -484.0994019638264    9.964394287636793    8.446397635373282    48.89229718212781   -0.110096051179537    0.109514168170327   -17.45837080461597  0.02587390643909948   0.1387247893620668
      2770                     0   -484.0997925628175    9.964381379434453    8.446408591077857    48.88150165102148  -0.1094238422778983   0.1094236393800124   -17.44398507737142  0.02581167902822235   0.1384026443302617
      2780                     0   -484.1001823645525    9.964368523372476     8.44641956030004    48.87069030432409  -0.1087564744904653    0.109330471513401   -17.42940803941734  0.02574952180130352   0.1380817010809245
      2790                     0    -484.100571370106    9.964355719103327    8.446430542828466    48.85986319812172  -0.1080939070329589   0.1092346989139056   -17.41464126757404   0.0256874340712081   0.1377619420761886
      2800                     0   -484.1009595805311      9.9643429662818    8.446441538454067    48.84902038786895  -0.1074361007818289   0.1091363574156019   -17.39968631074763  0.02562541516521954   0.1374433499806275
      2810                     0   -484.1013469968607    9.964330264564968    8.446452546970058    48.83816192839986  -0.1067830183187853   0.1090354786884077   -17.38454469168419  0.02556346442289759   0.1371259076573179
      2820                     0   -484.1017336201081    9.964317613612161    8.446463568171881    48.82728787393889  -0.1061346210278763   0.1089320947334455   -17.36921790723891  0.02550158119796331     0.13680959816478
      2830                     0   -484.1021194512641    9.964305013084953    8.446474601857162    48.81639827811074  -0.1054908721293885   0.1088262358140346   -17.35370742834722  0.02543976485569766   0.1364944047535953
      2840                     0    -484.102504491301    9.964292462647107    8.446485647825723    48.80549319395108  -0.1048517356673118   0.1087179248229241   -17.33801470092541  0.02537801477302026    0.136180310863126
      2850                     0   -484.1028887411717    9.964279961964579    8.446496705879476    48.79457267391599  -0.1042171806182726   0.1086071857321168   -17.32214114719229   0.0253163303390167   0.1358673001184762
      2860                     0   -484.1032722018091    9.964267510705499    8.446507775822536    48.78363676989152  -0.1035871790252681   0.1084940178052075   -17.30608816667074  0.02525471095293852   0.1355553563274196
      2870                     0   -484.1036548741266    9.964255108540186    8.446518857461168    48.77268553320294  -0.1029617186140098     0.10837839793364   -17.28985713536855  0.02519315602418626    0.135244463477519
      2880                     0   -484.1040367590177    9.964242755141214    8.446529950604054    48.76171901462386  -0.1023408140601252   0.1082602206647142   -17.27344941011285  0.02513166497178543   0.1349346057330702
      2890                     0   -484.1044178573591    9.964230450183587    8.446541055062655    48.75073726438482  -0.1017245444081681    0.108139215612657   -17.25686632692279  0.02507023722209967   0.1346257674323043
      2900                     0   -484.1047981700083    9.964218193345339    8.446552170652538    48.73974033218215  -0.1011131600185643    0.108014677049441   -17.24010921054812  0.02500887220503234    0.134317933083983
      2910                     0   -484.1051776978038    9.964205984308929    8.446563297196594    48.72872826718633   -0.100507329293703   0.1078848012599909   -17.22317938399382  0.02494756934614817   0.1340110873629971
      2920                     0   -484.1055564415664     9.96419382276545    8.446574434534172    48.71770111805125 -0.09990886466741378   0.1077448333414366   -17.20607820383648  0.02488632804208002   0.1337052151038629
      2930                     0   -484.1059344020983    9.964181708426203    8.446585582546792    48.70665893292478 -0.09932272543496866   0.1075818499445022    -17.1888071560664  0.02482514759393817   0.1334003012853831
      2940                     0   -484.1063115801842    9.964169641057147    8.446596741234202    48.69560175946502  -0.0987629653461661   0.1073593416563284    -17.1713681355726   0.0247640270111591   0.1330963309912364
      2950                     0   -484.1066879765912    9.964157620584277    8.446607910946952    48.68452964487417 -0.09827091481351032   0.1069700640756717   -17.15376430324339  0.02470296441400732   0.1327932892933321
      2960                     0   -484.1070635920659     9.96414564742887    8.446619093126413    48.67344263598967 -0.09797303747903299   0.1060860025328444   -17.13600281148307  0.02464195512820155   0.1324911608851391
      2970                     0   -484.1074384273294    9.964133723616554    8.446630292752651    48.66234077956972 -0.09827236143038211   0.1036619840232282   -17.11810381588123  0.02458098538583509   0.1321899288682938
      2980                     0   -484.1078124830589    9.964121856593804     8.44664152676768    48.65122412325807   -0.100507346409704  0.09622723767344681   -17.10013148848575  0.02452001064767229   0.1318895705795493
      2990                     0   -484.1081857598155    9.964110072895451    8.446652854239074    48.64009271902168  -0.1093118938541914  0.07176618888381729   -17.08230507938799  0.02445887796053048   0.1315900427368905
      3000                     0   -484.1085582577774    9.964098469098229    8.446664488807798    48.62894663594835  -0.1414154963050381 -0.01309835671001259   -17.06541295986363  0.02439703646981128   0.1312912277729601
      3010                     0   -484.1089299755865    9.964087409637155    8.446677235225525    48.61778600991433  -0.2598152088403626  -0.3217020708334285   -17.05242006790325  0.02433241339868963   0.1309927511203576
      3020                     0   -484.1093009042763    9.964078321933053    8.446694243957825    48.60661124326495  -0.7111597131218361   -1.493517558456863   -17.05492905494897  0.02425689548886978   0.1306936358912209
      3030                     0   -484.1096709902506    9.964075994852733    8.446726082896205    48.59542358483142   -2.323026416920782   -5.674055485462994   -17.11185770292165    0.024143264639786   0.1303965688146567
      3040                     0   -484.1100401966626      9.9640777016489    8.446766733869033    48.58422241295938   -4.625109095238009    -11.6436487198038   -17.20105757657786  0.02400699868005596   0.1301184715605903
      3050                     0    -484.110408783125    9.964067924778913    8.446781955223464    48.57300387065631   -4.936048315300659   -12.45080332390224   -17.19644145127212  0.02393628161202876   0.1298278965815051
      3060                     0   -484.1107766192598    9.964056801374371    8.446794118173033    48.56177052193146   -5.006894194058031   -12.63548119180846   -17.18037420409557  0.02387351684584882   0.1295350567988099
      3070                     0   -484.1111436819687    9.964045698301218    8.446806239441919    48.55052275186249    -5.07387443952202    -12.8101137635083   -17.16396653800741  0.02381093490278197   0.1292429482991582
      3080                     0   -484.1115099707913    9.964034671270232    8.446818442407212    48.53926061697864   -5.146673297857554   -12.99980266394595   -17.14767547534963  0.02374821673324679   0.1289516950953182
      3090                     0   -484.1118754885329    9.964023597046264    8.446830455726266    48.52798412836506   -5.204025797807731   -13.14943340351558   -17.13050364964726  0.02368606091139469   0.1286609758405706
      3100                     0   -484.1122402334543    9.964012598852364    8.446842551692122    48.51669335780932   -5.267293633855713   -13.31437217027555   -17.11345587361029  0.02362376457408999   0.1283710859426893
      3110                     0   -484.1126042068192    9.964001635731927    8.446854640433745    48.50538833556278   -5.329441826725152   -13.47638589215357   -17.09620289270231  0.02356155841054441   0.1280819105941708
      3120                     0    -484.112967409127    9.963990707588868    8.446866722216948    48.49406910156863   -5.390502151421009   -13.63555735142485   -17.07874731887699  0.02349944085835176   0.1277934371872123
      3130                     0   -484.1133298408607    9.963979814376279    8.446878797413831    48.48273569531761   -5.450514700897379   -13.79199085780218   -17.06109209526079  0.02343741011895606    0.127505653432479
      3140                     0   -484.1136915024896    9.963968956033201    8.446890866363372    48.47138815586125   -5.509516912580767   -13.94578381050994   -17.04323999948329  0.02337546450417527   0.1272185471801852
      3150                     0   -484.1140523944697    9.963958132486063    8.446902929374698    48.46002652183132   -5.567543806799956   -14.09702733064166   -17.02519366532925  0.02331360242196556    0.126932106413894
      3160                     0   -484.1144125172428    9.963947343649934    8.446914986729835    48.44865083145388     -5.6246281990229   -14.24580681432887   -17.00695559965409  0.02325182236358447   0.1266463192463873
      3170                     0   -484.1147718712374    9.963936589429659    8.446927038686233    48.43726112255979   -5.680800899685718   -14.39220244393833   -16.98852819499309  0.02319012289409805   0.1263611739171695
      3180                     0   -484.1151304568677     9.96392586972083    8.446939085478945    48.42585743259303   -5.736090879311093   -14.53628962689645   -16.96991374103958  0.02312850264751809   0.1260766587902687
      3190                     0   -484.1154882745356    9.963915184410679    8.446951127322555    48.41443979861781   -5.790525426704296   -14.67813939164397   -16.95111443212742  0.02306696031696376   0.1257927623520914
      3200                     0   -484.1158453246298    9.963904533378813     8.44696316441293    48.40300825732449   -5.844130277902791   -14.81781874014946   -16.93213237605293  0.02300549465174129   0.1255094732097262
      3210                     0   -484.1162016075261    9.963893916497971    8.446975196928783    48.39156284503498   -5.896929745353947   -14.95539096859421   -16.91296960050019  0.02294410445194561   0.1252267800891888
      3220                     0   -484.1165571235858    9.963883333634602    8.446987225033071    48.38010359770742   -5.948946822548804    -15.0909159490777   -16.89362805887222  0.02288278856337911   0.1249446718336739
      3230                     0   -484.1169118731593    9.963872784649441    8.446999248874249    48.36863055094072   -6.000203283042927    -15.2244503836162   -16.87410963502786  0.02282154587544394   0.1246631374020191
      3240                     0   -484.1172658565849    9.963862269398023    8.447011268587431    48.35714373997867   -6.050719771924316   -15.35604804209751   -16.85441614941213  0.02276037531840736   0.1243821658670111
      3250                     0   -484.1176190741853    9.963851787731144    8.447023284295398    48.34564319971382   -6.100515887244674   -15.48575996759162   -16.83454936112281  0.02269927585822806   0.1241017464141507
      3260                     0   -484.1179715262739    9.963841339495279    8.447035296109553    48.33412896469112   -6.149610251481736   -15.61363466862073   -16.81451097376409  0.02263824649592205    0.123821868339884
      3270                     0   -484.1183232157282    9.963830803073261    8.447047036319605    48.32260103768806   -6.176915707216076   -15.68505110970914     -16.793315083079  0.02257797871820255   0.1235421198172707
      3280                     0   -484.1186741351062    9.963820542777594    8.447059308635001    48.31105954603959   -6.245779130587287   -15.86409458731857   -16.77392645695146  0.02251639362784985   0.1232636946701433
      3290                     0   -484.1190242924118    9.963810193787648    8.447071309145615    48.29950443069144   -6.292855790672699   -15.98668604368511   -16.75338234770681  0.02245556940577842   0.1229853771500973
      3300                     0   -484.1193736853305    9.963799877665894    8.447083306301101    48.28793575533294   -6.339312052866958   -16.10765196975232   -16.73267362830855  0.02239481108769592    0.122707559659332
      3310                     0   -484.1197223141172    9.963789594154665    8.447095299975365    48.27635355282165   -6.385147207261516   -16.22699081191973   -16.71180107164749  0.02233411831281629   0.1224302316813405
      3320                     0   -484.1200701790131    9.963779343081388    8.447107290227633    48.26475785569725   -6.430375220875082   -16.34473898660363   -16.69076611433294  0.02227349024895631   0.1221533831307349
      3330                     0   -484.1204172802456     9.96376912427114    8.447119277110092    48.25314869616916   -6.475009469138565    -16.4609313702488   -16.66957015126519  0.02221292608782921    0.121877004035893
      3340                     0   -484.1207636180329     9.96375893754691    8.447131260668456    48.24152610612135   -6.519062755013116   -16.57560134244876   -16.64821453887803  0.02215242504029558   0.1216010845299806
      3350                     0   -484.1211091925814    9.963748782729766     8.44714324094253    48.22989011711686   -6.562547337208455   -16.68878087665797   -16.62670059902105  0.02209198633712006   0.1213256148470951
      3360                     0   -484.1214540040866    9.963738659639054    8.447155217966611    48.21824076040069   -6.605474964364194   -16.80050061542209   -16.60502961951406  0.02203160922696856   0.1210505853203634
      3370                     0   -484.1217980527317    9.963728568092572    8.447167191769896    48.20657806690269   -6.647856905306551   -16.91078995172195   -16.58320285873875  0.02197129297646239   0.1207759863801131
      3380                     0   -484.1221413386903    9.963718507906687    8.447179162376822    48.19490206724004   -6.689703970791161   -17.01967709540104   -16.56122154384107  0.02191103686877494   0.1205018085529553
      3390                     0   -484.1224838621246    9.963708478896502    8.447191129807345    48.18321279172028    -6.73102654372063   -17.12718913489204   -16.53908687438837  0.02185084020247885   0.1202280424602592
      3400                     0   -484.1228256231854    9.963698480875951    8.447203094077304    48.17151027034318   -6.771834600312229   -17.23335210582111   -16.51680002281559  0.02179070229133817   0.1199546788172818
      3410                     0   -484.1231666220147    9.963688513657926    8.447215055198622    48.15979453280358   -6.812137729841043   -17.33819103736462   -16.49436213600217  0.02173062246431368   0.1196817084317596
      3420                     0   -484.1235068587417    9.963678577054385    8.447227013179598     48.1480656084934   -6.851945156125148   -17.44173000884629   -16.47177433520335  0.02167060006251198   0.1194091222031797
      3430                     0   -484.1238463334869    9.963668670876448    8.447238968025124    48.13632352650414   -6.891265756355556   -17.54399219871645   -16.44903771898948  0.02161063444128342   0.1191369111215797
      3440                     0   -484.1241850463585    9.963658794934506    8.447250919736911    48.12456831562883   -6.930108079238183   -17.64499992631508   -16.42615336169188  0.02155072496797761   0.1188650662663396
      3450                     0   -484.1245229974565    9.963648949038289    8.447262868313699    48.11280000436426   -6.968480359447147   -17.74477469967234   -16.40312231746149  0.02149087102151892   0.1185935788056085
      3460                     0   -484.1248602280578    9.963637335282288    8.447270854303982    48.10101816765446    -6.69253711130397   -17.03114749593011   -16.36533184871707  0.02144134896538485    0.118315454199717
      3470                     0    -484.125196614633    9.963629349315024    8.447286761932189    48.08922419141038    -7.04431440919891   -17.94191886807021    -16.3566452848674  0.02137131189580277   0.1180516525448237
      3480                     0   -484.1255322809662    9.963619589738201    8.447298695196421    48.07741674683827   -7.080856677638166   -18.03690949050756   -16.33315889365151  0.02131163618569953   0.1177811740463869
      3490                     0    -484.125867185761    9.963609862100169    8.447310631147282    48.06559631343008   -7.117423573414188    -18.1319479014776   -16.30955130104948  0.02125199842469883   0.1175110294104921
      3500                     0   -484.1262013291267     9.96360016355977    8.447322563939556    48.05376291765021   -7.153559230617445   -18.22585469545369   -16.28580199808718   0.0211924131862018   0.1172411994133692
[...]
Histogram: 1 0 0 0 0 0 0 0 0 0
FullNghs:         1714 ave        1714 max        1714 min
Histogram: 1 0 0 0 0 0 0 0 0 0

Total # of neighbors = 1714
Ave neighs/atom = 27.645161
Neighbor list builds = 0
Dangerous builds = 0

# Minimize the with fire
  unfix           frb
  min_style       fire
  minimize        0.0 1.0e-3 10000 10000
  Parameters for fire:
    dmax  delaystep dtgrow dtshrink alpha0 alphashrink tmax tmin   integrator   halfstepback   abcfire  
     0.1     20      1.1     0.5     0.25     0.99      10  0.02 eulerimplicit      yes          no     
Per MPI rank memory allocation (min/avg/max) = 3.084 | 3.084 | 3.084 Mbytes
   Step          Temp          PotEng           Lx             Ly             Lz            Pxx            Pyy            Pzz            Fmax          Fnorm     
     10902                     0   -484.1932859350401    9.960592027776025    8.451367614433167    42.91075315107528 -0.02045961858580695 -0.05049522659896082 -0.04051639610968456 2.987586683996304e-05 0.0001559730836704831
     10903  1.239244511560367e-09   -484.1932859350599    9.960592027776025    8.451367614433167    42.91075315107528 -0.01996291957059571 -0.04818277987872089 -0.04070057103474443 2.986208689061479e-05 0.0001548555118168527
Loop time of 0.000294757 on 1 procs for 1 steps with 62 atoms

0.0% CPU use with 1 MPI tasks x no OpenMP threads

Minimization stats:
  Stopping criterion = force tolerance
  Energy initial, next-to-last, final = 
      -484.19328593504   -484.19328593504   -484.19328593506
  Force two-norm initial, final = 0.00015597308 0.00015485551
  Force max component initial, final = 2.9875867e-05 2.9862087e-05
  Final line search alpha, max atom move = 0 0
  Iterations, force evaluations = 1 2

MPI task timing breakdown:
Section |  min time  |  avg time  |  max time  |%varavg| %total
---------------------------------------------------------------
Pair    | 0.00011496 | 0.00011496 | 0.00011496 |   0.0 | 39.00
Neigh   | 0          | 0          | 0          |   0.0 |  0.00
Comm    | 1.724e-06  | 1.724e-06  | 1.724e-06  |   0.0 |  0.58
Output  | 0          | 0          | 0          |   0.0 |  0.00
Modify  | 0          | 0          | 0          |   0.0 |  0.00
Other   |            | 0.0001781  |            |       | 60.41

Nlocal:             62 ave          62 max          62 min
Histogram: 1 0 0 0 0 0 0 0 0 0
Nghost:            175 ave         175 max         175 min
Histogram: 1 0 0 0 0 0 0 0 0 0
Neighs:              0 ave           0 max           0 min
Histogram: 1 0 0 0 0 0 0 0 0 0
FullNghs:         1714 ave        1714 max        1714 min
Histogram: 1 0 0 0 0 0 0 0 0 0

Total # of neighbors = 1714
Ave neighs/atom = 27.645161
Neighbor list builds = 0
Dangerous builds = 0

next nr
jump ${simname}.in loopmin
jump Tersoff.in loopmin

# Minimize the with cg + box/relax
  fix             frb all box/relax tri 0.0 couple none
  min_style       cg
  min_modify      line quadratic
  minimize        0.0 1.0e-3 10000 10000
WARNING: Energy due to 6 extra global DOFs will be included in minimizer energies
 (src/min.cpp:225)
Per MPI rank memory allocation (min/avg/max) = 4.209 | 4.209 | 4.209 Mbytes
   Step          Temp          PotEng           Lx             Ly             Lz            Pxx            Pyy            Pzz            Fmax          Fnorm     
     10903  1.239244511560367e-09   -484.1932859350603    9.960592027776025    8.451367614433167    42.91075315107528 -0.01996291956744417 -0.04818277972665928 -0.04070057108295309 2.986208687724007e-05 0.0001548555118362685
     10904  1.239244511560367e-09   -484.1932859351298    9.960591440811362    8.451366412385898    42.91074799559217  0.09514626531181913   0.2327925909375027 -0.03562577354455326 3.060064393034523e-05 0.0001636583320006927
Loop time of 0.000398467 on 1 procs for 1 steps with 62 atoms

0.0% CPU use with 1 MPI tasks x no OpenMP threads

Minimization stats:
  Stopping criterion = force tolerance
  Energy initial, next-to-last, final = 
      -484.19328593506   -484.19328593506   -484.19328593513
  Force two-norm initial, final = 0.00031980431 0.0006974597
  Force max component initial, final = 0.00018764652 0.00052485217
  Final line search alpha, max atom move = 0.53291688 0.00027970258
  Iterations, force evaluations = 1 2

MPI task timing breakdown:
Section |  min time  |  avg time  |  max time  |%varavg| %total
---------------------------------------------------------------
Pair    | 0.00017702 | 0.00017702 | 0.00017702 |   0.0 | 44.43
Neigh   | 0          | 0          | 0          |   0.0 |  0.00
Comm    | 2.359e-06  | 2.359e-06  | 2.359e-06  |   0.0 |  0.59
Output  | 0          | 0          | 0          |   0.0 |  0.00
Modify  | 0          | 0          | 0          |   0.0 |  0.00
Other   |            | 0.0002191  |            |       | 54.98

Nlocal:             62 ave          62 max          62 min
Histogram: 1 0 0 0 0 0 0 0 0 0
Nghost:            175 ave         175 max         175 min
Histogram: 1 0 0 0 0 0 0 0 0 0
Neighs:              0 ave           0 max           0 min
Histogram: 1 0 0 0 0 0 0 0 0 0
FullNghs:         1714 ave        1714 max        1714 min
Histogram: 1 0 0 0 0 0 0 0 0 0

Total # of neighbors = 1714
Ave neighs/atom = 27.645161
Neighbor list builds = 0
Dangerous builds = 0

# Minimize the with fire
  unfix           frb
  min_style       fire
  minimize        0.0 1.0e-3 10000 10000
  Parameters for fire:
    dmax  delaystep dtgrow dtshrink alpha0 alphashrink tmax tmin   integrator   halfstepback   abcfire  
     0.1     20      1.1     0.5     0.25     0.99      10  0.02 eulerimplicit      yes          no     
Per MPI rank memory allocation (min/avg/max) = 3.084 | 3.084 | 3.084 Mbytes
   Step          Temp          PotEng           Lx             Ly             Lz            Pxx            Pyy            Pzz            Fmax          Fnorm     
     10904                     0   -484.1932859351303    9.960591440811362    8.451366412385898    42.91074799559217  0.09514626251843292    0.232792589017208 -0.03562577767633769 3.060064395965512e-05 0.0001636583319877664
     10905  1.364375550264567e-09   -484.1932859351514    9.960591440811362    8.451366412385898    42.91074799559217  0.09468858114425362   0.2271427576619332 -0.03575516796426942  3.0517599839186e-05 0.0001607754228720184
Loop time of 0.00035837 on 1 procs for 1 steps with 62 atoms

0.0% CPU use with 1 MPI tasks x no OpenMP threads

Minimization stats:
  Stopping criterion = force tolerance
  Energy initial, next-to-last, final = 
      -484.19328593513   -484.19328593513  -484.193285935151
  Force two-norm initial, final = 0.00016365833 0.00016077542
  Force max component initial, final = 3.0600644e-05 3.05176e-05
  Final line search alpha, max atom move = 0 0
  Iterations, force evaluations = 1 2

MPI task timing breakdown:
Section |  min time  |  avg time  |  max time  |%varavg| %total
---------------------------------------------------------------
Pair    | 0.00010855 | 0.00010855 | 0.00010855 |   0.0 | 30.29
Neigh   | 0          | 0          | 0          |   0.0 |  0.00
Comm    | 1.515e-06  | 1.515e-06  | 1.515e-06  |   0.0 |  0.42
Output  | 0          | 0          | 0          |   0.0 |  0.00
Modify  | 0          | 0          | 0          |   0.0 |  0.00
Other   |            | 0.0002483  |            |       | 69.29

Nlocal:             62 ave          62 max          62 min
Histogram: 1 0 0 0 0 0 0 0 0 0
Nghost:            175 ave         175 max         175 min
Histogram: 1 0 0 0 0 0 0 0 0 0
Neighs:              0 ave           0 max           0 min
Histogram: 1 0 0 0 0 0 0 0 0 0
FullNghs:         1714 ave        1714 max        1714 min
Histogram: 1 0 0 0 0 0 0 0 0 0

Total # of neighbors = 1714
Ave neighs/atom = 27.645161
Neighbor list builds = 0
Dangerous builds = 0

next nr
jump ${simname}.in loopmin
jump Tersoff.in loopmin

# Minimize the with cg + box/relax
  fix             frb all box/relax tri 0.0 couple none
  min_style       cg
  min_modify      line quadratic
  minimize        0.0 1.0e-3 10000 10000
WARNING: Energy due to 6 extra global DOFs will be included in minimizer energies
 (src/min.cpp:225)
Per MPI rank memory allocation (min/avg/max) = 4.209 | 4.209 | 4.209 Mbytes
   Step          Temp          PotEng           Lx             Ly             Lz            Pxx            Pyy            Pzz            Fmax          Fnorm     
     10905  1.364375550264567e-09   -484.1932859351515    9.960591440811362    8.451366412385898    42.91074799559217  0.09468858123249665   0.2271427575965389 -0.03575516796722399 3.051759997196868e-05 0.0001607754228227109
     10906  1.364375550264567e-09   -484.1932859352125      9.9605920297927      8.4513676111801    42.91074703746365 -0.02002881901222169 -0.04946674928489705 -0.04033427475553199 2.988228643820492e-05 0.0001553456718446552
Loop time of 0.000348906 on 1 procs for 1 steps with 62 atoms

0.0% CPU use with 1 MPI tasks x no OpenMP threads

Minimization stats:
  Stopping criterion = force tolerance
  Energy initial, next-to-last, final = 
     -484.193285935151  -484.193285935151  -484.193285935212
  Force two-norm initial, final = 0.00068265254 0.00032133619
  Force max component initial, final = 0.00051211403 0.00018773168
  Final line search alpha, max atom move = 0.19526901 3.665818e-05
  Iterations, force evaluations = 1 2

MPI task timing breakdown:
Section |  min time  |  avg time  |  max time  |%varavg| %total
---------------------------------------------------------------
Pair    | 0.00013139 | 0.00013139 | 0.00013139 |   0.0 | 37.66
Neigh   | 0          | 0          | 0          |   0.0 |  0.00
Comm    | 2.168e-06  | 2.168e-06  | 2.168e-06  |   0.0 |  0.62
Output  | 0          | 0          | 0          |   0.0 |  0.00
Modify  | 0          | 0          | 0          |   0.0 |  0.00
Other   |            | 0.0002153  |            |       | 61.72

Nlocal:             62 ave          62 max          62 min
Histogram: 1 0 0 0 0 0 0 0 0 0
Nghost:            175 ave         175 max         175 min
Histogram: 1 0 0 0 0 0 0 0 0 0
Neighs:              0 ave           0 max           0 min
Histogram: 1 0 0 0 0 0 0 0 0 0
FullNghs:         1714 ave        1714 max        1714 min
Histogram: 1 0 0 0 0 0 0 0 0 0

Total # of neighbors = 1714
Ave neighs/atom = 27.645161
Neighbor list builds = 0
Dangerous builds = 0

# Minimize the with fire
  unfix           frb
  min_style       fire
  minimize        0.0 1.0e-3 10000 10000
  Parameters for fire:
    dmax  delaystep dtgrow dtshrink alpha0 alphashrink tmax tmin   integrator   halfstepback   abcfire  
     0.1     20      1.1     0.5     0.25     0.99      10  0.02 eulerimplicit      yes          no     
Per MPI rank memory allocation (min/avg/max) = 3.084 | 3.084 | 3.084 Mbytes
   Step          Temp          PotEng           Lx             Ly             Lz            Pxx            Pyy            Pzz            Fmax          Fnorm     
     10906                     0   -484.1932859352124      9.9605920297927      8.4513676111801    42.91074703746365 -0.02002882202778915 -0.04946675178432337 -0.04033427881325637 2.988228648125382e-05 0.000155345671855949
     10907  1.229294681448708e-09    -484.193285935232      9.9605920297927      8.4513676111801    42.91074703746365  -0.0195425708793116 -0.04715320075777141 -0.04051732631241634 2.986793790251373e-05 0.0001542358000932978
Loop time of 0.000320428 on 1 procs for 1 steps with 62 atoms

0.0% CPU use with 1 MPI tasks x no OpenMP threads

Minimization stats:
  Stopping criterion = force tolerance
  Energy initial, next-to-last, final = 
     -484.193285935212  -484.193285935212  -484.193285935232
  Force two-norm initial, final = 0.00015534567 0.0001542358
  Force max component initial, final = 2.9882286e-05 2.9867938e-05
  Final line search alpha, max atom move = 0 0
  Iterations, force evaluations = 1 2

MPI task timing breakdown:
Section |  min time  |  avg time  |  max time  |%varavg| %total
---------------------------------------------------------------
Pair    | 0.00010683 | 0.00010683 | 0.00010683 |   0.0 | 33.34
Neigh   | 0          | 0          | 0          |   0.0 |  0.00
Comm    | 1.522e-06  | 1.522e-06  | 1.522e-06  |   0.0 |  0.47
Output  | 0          | 0          | 0          |   0.0 |  0.00
Modify  | 0          | 0          | 0          |   0.0 |  0.00
Other   |            | 0.0002121  |            |       | 66.18

Nlocal:             62 ave          62 max          62 min
Histogram: 1 0 0 0 0 0 0 0 0 0
Nghost:            175 ave         175 max         175 min
Histogram: 1 0 0 0 0 0 0 0 0 0
Neighs:              0 ave           0 max           0 min
Histogram: 1 0 0 0 0 0 0 0 0 0
FullNghs:         1714 ave        1714 max        1714 min
Histogram: 1 0 0 0 0 0 0 0 0 0

Total # of neighbors = 1714
Ave neighs/atom = 27.645161
Neighbor list builds = 0
Dangerous builds = 0

next nr
jump ${simname}.in loopmin
jump Tersoff.in loopmin

# Minimize the with cg + box/relax
  fix             frb all box/relax tri 0.0 couple none
  min_style       cg
  min_modify      line quadratic
  minimize        0.0 1.0e-3 10000 10000
Per MPI rank memory allocation (min/avg/max) = 4.209 | 4.209 | 4.209 Mbytes
   Step          Temp          PotEng           Lx             Ly             Lz            Pxx            Pyy            Pzz            Fmax          Fnorm     
WARNING: Too many warnings: 101 vs 100. All future warnings will be suppressed (src/thermo.cpp:472)
     10907  1.229294681448708e-09   -484.1932859352315      9.9605920297927      8.4513676111801    42.91074703746365 -0.01954257083519009 -0.04715320089407536 -0.04051732652396323 2.986793788779633e-05 0.0001542358001331799
     10908  1.229294681448708e-09   -484.1932859353038    9.960591435517298    8.451366394548664    42.91074172950238  0.09697677141623619   0.2373236055601864 -0.03537803279934661 3.058069832384547e-05 0.0001634214225520002
Loop time of 0.000381174 on 1 procs for 1 steps with 62 atoms

0.0% CPU use with 1 MPI tasks x no OpenMP threads

Minimization stats:
  Stopping criterion = force tolerance
  Energy initial, next-to-last, final = 
     -484.193285935231  -484.193285935231  -484.193285935304
  Force two-norm initial, final = 0.00031838449 0.00070858239
  Force max component initial, final = 0.0001878432 0.00053506768
  Final line search alpha, max atom move = 0.5323589 0.00028484804
  Iterations, force evaluations = 1 2

MPI task timing breakdown:
Section |  min time  |  avg time  |  max time  |%varavg| %total
---------------------------------------------------------------
Pair    | 0.00013189 | 0.00013189 | 0.00013189 |   0.0 | 34.60
Neigh   | 0          | 0          | 0          |   0.0 |  0.00
Comm    | 1.994e-06  | 1.994e-06  | 1.994e-06  |   0.0 |  0.52
Output  | 0          | 0          | 0          |   0.0 |  0.00
Modify  | 0          | 0          | 0          |   0.0 |  0.00
Other   |            | 0.0002473  |            |       | 64.88

Nlocal:             62 ave          62 max          62 min
Histogram: 1 0 0 0 0 0 0 0 0 0
Nghost:            175 ave         175 max         175 min
Histogram: 1 0 0 0 0 0 0 0 0 0
Neighs:              0 ave           0 max           0 min
Histogram: 1 0 0 0 0 0 0 0 0 0
FullNghs:         1714 ave        1714 max        1714 min
Histogram: 1 0 0 0 0 0 0 0 0 0

Total # of neighbors = 1714
Ave neighs/atom = 27.645161
Neighbor list builds = 0
Dangerous builds = 0

# Minimize the with fire
  unfix           frb
  min_style       fire
  minimize        0.0 1.0e-3 10000 10000
  Parameters for fire:
    dmax  delaystep dtgrow dtshrink alpha0 alphashrink tmax tmin   integrator   halfstepback   abcfire  
     0.1     20      1.1     0.5     0.25     0.99      10  0.02 eulerimplicit      yes          no     
Per MPI rank memory allocation (min/avg/max) = 3.084 | 3.084 | 3.084 Mbytes
   Step          Temp          PotEng           Lx             Ly             Lz            Pxx            Pyy            Pzz            Fmax          Fnorm     
     10908                     0    -484.193285935304    9.960591435517298    8.451366394548664    42.91074172950238  0.09697676849525445   0.2373236036301508 -0.03537803702990101 3.058069832917454e-05 0.0001634214225115928
     10909  1.360428308039485e-09   -484.1932859353247    9.960591435517298    8.451366394548664    42.91074172950238  0.09649650261189724   0.2315705089044516  -0.0355058430301748 3.049522701870089e-05 0.0001604428194623931
Loop time of 0.000270938 on 1 procs for 1 steps with 62 atoms

0.0% CPU use with 1 MPI tasks x no OpenMP threads

Minimization stats:
  Stopping criterion = force tolerance
  Energy initial, next-to-last, final = 
     -484.193285935304  -484.193285935304  -484.193285935325
  Force two-norm initial, final = 0.00016342142 0.00016044282
  Force max component initial, final = 3.0580698e-05 3.0495227e-05
  Final line search alpha, max atom move = 0 0
  Iterations, force evaluations = 1 2

MPI task timing breakdown:
Section |  min time  |  avg time  |  max time  |%varavg| %total
---------------------------------------------------------------
Pair    | 0.00010804 | 0.00010804 | 0.00010804 |   0.0 | 39.88
Neigh   | 0          | 0          | 0          |   0.0 |  0.00
Comm    | 1.737e-06  | 1.737e-06  | 1.737e-06  |   0.0 |  0.64
Output  | 0          | 0          | 0          |   0.0 |  0.00
Modify  | 0          | 0          | 0          |   0.0 |  0.00
Other   |            | 0.0001612  |            |       | 59.48

Nlocal:             62 ave          62 max          62 min
Histogram: 1 0 0 0 0 0 0 0 0 0
Nghost:            175 ave         175 max         175 min
Histogram: 1 0 0 0 0 0 0 0 0 0
Neighs:              0 ave           0 max           0 min
Histogram: 1 0 0 0 0 0 0 0 0 0
FullNghs:         1714 ave        1714 max        1714 min
Histogram: 1 0 0 0 0 0 0 0 0 0

Total # of neighbors = 1714
Ave neighs/atom = 27.645161
Neighbor list builds = 0
Dangerous builds = 0

next nr
jump ${simname}.in loopmin
jump Tersoff.in loopmin

variable        energy equal pe
fix             output all ave/time 1 1 1 v_energy file ${simname}_energy.data
fix             output all ave/time 1 1 1 v_energy file Tersoff_energy.data
dump            dump1 all custom 1 ${simname}.lammpstrj id type x y z fx fy fz
dump            dump1 all custom 1 Tersoff.lammpstrj id type x y z fx fy fz
dump_modify     dump1 sort id

fix             nve all nve
run             0
Per MPI rank memory allocation (min/avg/max) = 3.084 | 3.084 | 3.084 Mbytes
   Step          Temp          PotEng           Lx             Ly             Lz            Pxx            Pyy            Pzz            Fmax          Fnorm     
     10909  1.360428308039485e-09   -484.1932859353249    9.960591435517298    8.451366394548664    42.91074172950238  0.09649650277577719    0.231570508881603  -0.0355058429879245 3.049522700093732e-05 0.0001604428194112761
Loop time of 4.94e-07 on 1 procs for 0 steps with 62 atoms

607.3% CPU use with 1 MPI tasks x no OpenMP threads

MPI task timing breakdown:
Section |  min time  |  avg time  |  max time  |%varavg| %total
---------------------------------------------------------------
Pair    | 0          | 0          | 0          |   0.0 |  0.00
Neigh   | 0          | 0          | 0          |   0.0 |  0.00
Comm    | 0          | 0          | 0          |   0.0 |  0.00
Output  | 0          | 0          | 0          |   0.0 |  0.00
Modify  | 0          | 0          | 0          |   0.0 |  0.00
Other   |            | 4.94e-07   |            |       |100.00

Nlocal:             62 ave          62 max          62 min
Histogram: 1 0 0 0 0 0 0 0 0 0
Nghost:            175 ave         175 max         175 min
Histogram: 1 0 0 0 0 0 0 0 0 0
Neighs:              0 ave           0 max           0 min
Histogram: 1 0 0 0 0 0 0 0 0 0
FullNghs:         1714 ave        1714 max        1714 min
Histogram: 1 0 0 0 0 0 0 0 0 0

Total # of neighbors = 1714
Ave neighs/atom = 27.645161
Neighbor list builds = 0
Dangerous builds = 0
Total wall time: 0:00:01
