ITEM: TIMESTEP
10909
ITEM: NUMBER OF ATOMS
62
ITEM: BOX BOUNDS xy xz yz pp pp pp
-7.0411882363750768e+00 1.5168197155187539e+01 5.2714138579788203e+00
-3.7366989639048134e+00 8.4019228382243085e+00 -6.9773800980664964e+00
3.5241039323487766e+00 4.6434845661851163e+01 -3.6872554075804587e+00
ITEM: ATOMS id type x y z fx fy fz
1 1 12.434 6.96209 19.9406 7.33604e-06 6.28747e-06 -2.39606e-06
2 1 -1.57269 -0.809445 19.9171 3.07593e-07 2.40086e-06 -4.95697e-06
3 1 -2.04335 -1.07056 22.9441 -9.62839e-06 -8.21784e-06 -1.7532e-05
4 1 -0.78811 -0.374102 22.8147 -1.86814e-05 -1.33884e-05 -3.00608e-05
5 1 -1.43566 0.584038 19.9683 7.29605e-06 6.39327e-06 -5.06369e-06
6 1 -0.0249537 1.08202 20.0206 -3.70509e-06 2.27514e-05 -1.27439e-05
7 1 -0.721092 1.04231 22.7669 -1.54566e-05 -1.07199e-05 -2.57012e-05
8 1 0.525865 1.71537 22.5357 -2.3794e-05 -1.36633e-05 -1.6525e-05
9 1 0.0350908 2.59335 20.0845 1.12192e-05 9.02246e-06 -1.16728e-05
10 1 1.23426 3.39315 20.2204 1.17078e-05 9.7636e-06 -2.16506e-06
11 1 0.686268 3.08912 22.8728 -1.29646e-05 -8.57819e-06 7.27857e-06
12 1 1.99951 3.68332 23.0088 -1.17301e-05 -8.92967e-06 1.3815e-05
13 1 1.21845 4.83375 20.0656 9.99561e-06 8.97288e-06 -7.73675e-06
14 1 2.46349 5.55209 20.0107 4.82634e-06 4.99776e-06 2.3842e-06
15 1 1.98198 5.20179 23.0376 -5.93066e-06 -6.0686e-06 9.68906e-06
16 1 3.21425 5.95181 23.0156 -9.92599e-06 -8.8438e-06 -6.64208e-06
17 1 -0.317826 -1.43065 19.9683 7.04671e-06 6.9588e-06 -2.95147e-06
18 1 0.851284 -0.497236 20.0206 1.54908e-05 -1.09171e-05 -1.25581e-05
19 1 0.449157 -1.06684 22.7669 -1.46736e-05 -1.16296e-05 -3.04952e-05
20 1 1.68016 -0.365029 22.5358 -2.11581e-05 -1.6508e-05 -2.14157e-05
21 1 2.54612 1.47585 21.0783 1.42135e-05 9.45919e-06 1.72617e-05
22 1 1.61879 0.96134 22.0149 -1.42135e-05 -9.45919e-06 -1.72617e-05
23 1 2.48475 2.80222 20.5575 2.11581e-05 1.6508e-05 2.14157e-05
24 1 3.71575 3.50404 20.3263 1.46736e-05 1.16296e-05 3.04952e-05
25 1 3.31362 2.93443 23.0726 -1.54908e-05 1.09171e-05 1.25581e-05
26 1 4.48273 3.86784 23.125 -7.04671e-06 -6.9588e-06 2.95147e-06
27 1 3.72732 4.89868 20.1125 1.12756e-05 1.11433e-05 1.62698e-05
28 1 4.97818 5.61413 20.0411 4.99695e-06 5.37734e-06 8.60771e-06
29 1 4.45814 5.27443 23.0521 -4.99695e-06 -5.37734e-06 -8.60771e-06
30 1 5.709 5.98988 22.9808 -1.12756e-05 -1.11433e-05 -1.62698e-05
31 1 2.1654 -1.24613 20.0845 1.17301e-05 8.92967e-06 -1.3815e-05
32 1 3.47864 -0.651925 20.2204 1.29646e-05 8.57819e-06 -7.27857e-06
33 1 2.93064 -0.955952 22.8728 -1.17078e-05 -9.7636e-06 2.16506e-06
34 1 4.12982 -0.156161 23.0088 -1.12192e-05 -9.02246e-06 1.16728e-05
35 1 3.63904 0.721821 20.5575 2.3794e-05 1.36633e-05 1.6525e-05
36 1 4.886 1.39488 20.3263 1.54566e-05 1.07199e-05 2.57012e-05
37 1 4.18986 1.35517 23.0726 3.70509e-06 -2.27514e-05 1.27439e-05
38 1 5.60056 1.85315 23.125 -7.29605e-06 -6.39327e-06 5.06369e-06
39 1 4.95302 2.8113 20.2786 1.86814e-05 1.33884e-05 3.00608e-05
40 1 6.20825 3.50775 20.1491 9.62839e-06 8.21784e-06 1.7532e-05
41 1 5.7376 3.24664 23.1761 -3.07592e-07 -2.40086e-06 4.95697e-06
42 1 6.96287 3.92647 23.1526 -7.33604e-06 -6.28747e-06 2.39606e-06
43 1 6.22207 4.93675 20.0777 9.926e-06 8.8438e-06 6.64208e-06
44 1 7.45434 5.68677 20.0556 5.93066e-06 6.06861e-06 -9.68906e-06
45 1 6.97283 5.33647 23.0826 -4.82634e-06 -4.99776e-06 -2.3842e-06
46 1 8.21787 6.05481 23.0276 -9.99561e-06 -8.97288e-06 7.73675e-06
47 1 4.6926 -1.42775 20.0656 1.11996e-05 7.30511e-06 -1.16922e-05
48 1 5.961 -0.751525 20.0107 5.00916e-06 5.00043e-06 -1.68549e-06
49 1 5.40893 -0.974643 23.0376 -5.97603e-06 -5.70204e-06 9.45147e-06
50 1 6.69745 -0.326019 23.0156 -1.02191e-05 -8.14828e-06 -5.11165e-06
51 1 6.07545 0.666617 20.1125 1.32231e-05 7.9768e-06 1.07051e-05
52 1 7.34449 1.34931 20.0412 4.94114e-06 5.47453e-06 4.60059e-06
53 1 6.78101 1.08789 23.0521 -4.94114e-06 -5.47453e-06 -4.60059e-06
54 1 8.05005 1.77058 22.9807 -1.32231e-05 -7.9768e-06 -1.07051e-05
55 1 7.42804 2.76321 20.0777 1.02191e-05 8.14828e-06 5.11165e-06
56 1 8.71657 3.41184 20.0556 5.97603e-06 5.70204e-06 -9.45147e-06
57 1 8.16449 3.18872 23.0826 -5.00916e-06 -5.00043e-06 1.68549e-06
58 1 9.4329 3.86494 23.0276 -1.11996e-05 -7.30511e-06 1.16922e-05
59 1 8.70173 4.89124 20.0384 7.38841e-06 6.65207e-06 -1.42041e-05
60 1 9.95039 5.58405 20.0393 4.55388e-06 4.66284e-06 -1.45809e-05
61 1 9.44652 5.30451 23.054 -4.55388e-06 -4.66284e-06 1.45809e-05
62 1 10.6952 5.99732 23.0548 -7.38841e-06 -6.65207e-06 1.42041e-05
